units           metal
boundary        p p p
atom_style      full

neigh_modify    every 10 delay 0 check no

read_data   C.monolayer.data
Reading data file ...
  orthogonal box = (0 0 -50) to (59.044507 102.26809 50)
  1 by 1 by 1 MPI processor grid
  reading atoms ...
  2304 atoms
Finding 1-2 1-3 1-4 neighbors ...
  special bond factors lj:    0        0        0       
  special bond factors coul:  0        0        0       
     0 = max # of 1-2 neighbors
     0 = max # of 1-3 neighbors
     0 = max # of 1-4 neighbors
     1 = max # of special neighbors
  special bonds CPU = 0.000 seconds
  read_data CPU = 0.008 seconds
mass        1 12.01

pair_style  nep
pair_coeff * * nep.C.GAP2020 C

compute    1 all pe/atom
# compute    pe all reduce sum c_1
dump 1 all custom 1 out.dump id type x y z fx fy fz
run 1
WARNING: No fixes with time integration, atoms won't move (../verlet.cpp:60)
Neighbor list info ...
  update: every = 10 steps, delay = 0 steps, check = no
  max neighbors/atom: 2000, page size: 100000
  master list distance cutoff = 9
  ghost atom cutoff = 9
  binsize = 4.5, bins = 14 23 23
  1 neighbor lists, perpetual/occasional/extra = 1 0 0
  (1) pair nep, perpetual
      attributes: full, newton on
      pair build: full/bin
      stencil: full/bin/3d
      bin: standard
Per MPI rank memory allocation (min/avg/max) = 6.546 | 6.546 | 6.546 Mbytes
   Step          Temp          E_pair         E_mol          TotEng         Press     
         0   0             -18322.775      0             -18322.775      244.43116    
         1   0             -18322.775      0             -18322.775      244.43116    
Loop time of 0.122927 on 1 procs for 1 steps with 2304 atoms

Performance: 0.703 ns/day, 34.146 hours/ns, 8.135 timesteps/s, 18.743 katom-step/s
100.0% CPU use with 1 MPI tasks x no OpenMP threads

MPI task timing breakdown:
Section |  min time  |  avg time  |  max time  |%varavg| %total
---------------------------------------------------------------
Pair    | 0.12039    | 0.12039    | 0.12039    |   0.0 | 97.93
Bond    | 9.21e-07   | 9.21e-07   | 9.21e-07   |   0.0 |  0.00
Neigh   | 0          | 0          | 0          |   0.0 |  0.00
Comm    | 2.0482e-05 | 2.0482e-05 | 2.0482e-05 |   0.0 |  0.02
Output  | 0.0025107  | 0.0025107  | 0.0025107  |   0.0 |  2.04
Modify  | 7.72e-07   | 7.72e-07   | 7.72e-07   |   0.0 |  0.00
Other   |            | 6.891e-06  |            |       |  0.01

Nlocal:           2304 ave        2304 max        2304 min
Histogram: 1 0 0 0 0 0 0 0 0 0
Nghost:           1255 ave        1255 max        1255 min
Histogram: 1 0 0 0 0 0 0 0 0 0
Neighs:              0 ave           0 max           0 min
Histogram: 1 0 0 0 0 0 0 0 0 0
FullNghs:       235008 ave      235008 max      235008 min
Histogram: 1 0 0 0 0 0 0 0 0 0

Total # of neighbors = 235008
Ave neighs/atom = 102
Ave special neighs/atom = 0
Neighbor list builds = 0
Dangerous builds not checked
# velocity        all create 300 23456789
# fix             1 all npt temp 300 300 0.1 iso 0 0 1
# fix             2 all momentum 1 linear 1 1 1
# timestep        0.001
# thermo_style    custom step pe ke etotal temp press vol pxx pyy pzz pxy pxz pyz
# thermo          10
# dump 20 all custom 1 out.dump id type x y z fx fy fz
# run             100
#
Total wall time: 0:00:00
