LAMMPS (21 Nov 2023 - Development - patch_21Nov2023-382-g3206608dc0-modified)
units           metal
boundary        p p p
atom_style      full

neigh_modify    every 10 delay 0 check no

read_data   C.monolayer.data
Reading data file ...
  orthogonal box = (0 0 -50) to (59.044507 102.26809 50)
  1 by 2 by 2 MPI processor grid
  reading atoms ...
  2304 atoms
Finding 1-2 1-3 1-4 neighbors ...
  special bond factors lj:    0        0        0       
  special bond factors coul:  0        0        0       
     0 = max # of 1-2 neighbors
     0 = max # of 1-3 neighbors
     0 = max # of 1-4 neighbors
     1 = max # of special neighbors
  special bonds CPU = 0.000 seconds
  read_data CPU = 0.008 seconds
mass        1 12.01

pair_style  nep
pair_coeff * * nep.C.GAP2020 C

compute    1 all pe/atom
compute    pe all reduce sum c_1
dump 1 all custom 1 out.dump id type x y z fx fy fz
run 1
WARNING: No fixes with time integration, atoms won't move (../verlet.cpp:60)
Neighbor list info ...
  update: every = 10 steps, delay = 0 steps, check = no
  max neighbors/atom: 2000, page size: 100000
  master list distance cutoff = 9
  ghost atom cutoff = 9
  binsize = 4.5, bins = 14 23 23
  1 neighbor lists, perpetual/occasional/extra = 1 0 0
  (1) pair nep, perpetual
      attributes: full, newton on
      pair build: full/bin
      stencil: full/bin/3d
      bin: standard
Per MPI rank memory allocation (min/avg/max) = 5.793 | 6.047 | 6.301 Mbytes
   Step          Temp          E_pair         E_mol          TotEng         Press     
         0   0             -18322.775      0             -18322.775      244.43116    
         1   0             -18322.775      0             -18322.775      244.43116    
Loop time of 0.062365 on 4 procs for 1 steps with 2304 atoms

Performance: 1.385 ns/day, 17.324 hours/ns, 16.035 timesteps/s, 36.944 katom-step/s
99.8% CPU use with 4 MPI tasks x no OpenMP threads

MPI task timing breakdown:
Section |  min time  |  avg time  |  max time  |%varavg| %total
---------------------------------------------------------------
Pair    | 1.596e-06  | 0.030484   | 0.061004   |  17.5 | 48.88
Bond    | 9.3e-08    | 4.6475e-07 | 7.85e-07   |   0.0 |  0.00
Neigh   | 0          | 0          | 0          |   0.0 |  0.00
Comm    | 8.7202e-05 | 0.030573   | 0.061055   |  17.4 | 49.02
Output  | 0.001177   | 0.0012604  | 0.0013283  |   0.2 |  2.02
Modify  | 6.53e-07   | 1.1142e-06 | 1.422e-06  |   0.0 |  0.00
Other   |            | 4.627e-05  |            |       |  0.07

Nlocal:            576 ave        1152 max           0 min
Histogram: 2 0 0 0 0 0 0 0 0 2
Nghost:           1471 ave        2047 max         895 min
Histogram: 2 0 0 0 0 0 0 0 0 2
Neighs:              0 ave           0 max           0 min
Histogram: 4 0 0 0 0 0 0 0 0 0
FullNghs:        58752 ave      117504 max           0 min
Histogram: 2 0 0 0 0 0 0 0 0 2

Total # of neighbors = 235008
Ave neighs/atom = 102
Ave special neighs/atom = 0
Neighbor list builds = 0
Dangerous builds not checked
velocity        all create 300 23456789
fix             1 all npt temp 300 300 0.1 iso 0 0 1
fix             2 all momentum 1 linear 1 1 1
timestep        0.001
thermo_style    custom step pe ke etotal temp press vol pxx pyy pzz pxy pxz pyz
thermo          10
dump 20 all custom 20 out.dump id type x y z fx fy fz
run             1000
Per MPI rank memory allocation (min/avg/max) = 6.171 | 6.896 | 7.621 Mbytes
   Step         PotEng         KinEng         TotEng          Temp          Press          Volume          Pxx            Pyy            Pzz            Pxy            Pxz            Pyz      
         1  -18322.775      89.305834     -18233.469      300            402.40286      603836.88      524.55671      520.86748      161.78438     -1.3361081     -0.41535875     0.32044281   
        10  -18269.956      36.957179     -18232.999      124.14815      337.60749      604042.79      505.95221      527.11319     -20.242932      5.2300309      5.0531979      1.5823185    
        20  -18270.331      37.785757     -18232.545      126.93154      282.3106       604650.19      437.22252      406.80521      2.9040594     -8.1043063     -11.126614     -2.5860149    
        30  -18268.199      36.470016     -18231.729      122.51165      141.70096      605530.32      205.88727      229.60664     -10.391022      23.386519      0.40942863     3.6058631    
        40  -18271.326      40.204162     -18231.121      135.05555     -28.136116      606525.85     -16.5264       -67.962462      0.080514371   -11.738354      8.2760681     -1.0188304    
        50  -18278.877      48.447581     -18230.429      162.7472      -175.47713      607467.64     -278.92817     -261.07568      13.572478      13.217366     -1.623715      -5.8943788    
        60  -18275.017      45.439522     -18229.577      152.6424      -306.00395      608212.87     -427.15968     -471.8888      -18.963383     -7.9788284     -2.7804441     -3.5680692    
        70  -18274.101      45.488828     -18228.612      152.80803     -331.63588      608622.92     -497.70092     -489.45672     -7.7500011      7.8034218      4.7402858      9.0613083    
        80  -18275.652      48.063595     -18227.588      161.4573      -305.91034      608644.38     -455.40457     -495.16449      32.838043     -13.554792     -5.1729763      6.0836133    
        90  -18270.444      43.765374     -18226.678      147.01853     -310.00056      608288.12     -452.87306     -449.02002     -28.108599      4.1399215      6.3877626     -4.465345     
       100  -18279.226      53.341359     -18225.885      179.18659     -224.24902      607583.17     -330.30382     -348.25269      5.8094412     -3.1618992      6.6455279     -0.78228179   
       110  -18278.895      54.010385     -18224.884      181.43401     -106.5374       606650.09     -149.72926     -177.66347      7.7805366     -3.3009664     -5.870094       5.3960263    
       120  -18274.628      50.858547     -18223.769      170.84622      38.696825      605636.69      57.671058      60.089336     -1.6699186     -0.69472        0.38725536    -1.7581756    
       130  -18272.343      49.839571     -18222.504      167.42323      192.7099       604691.34      324.76226      251.41901      1.9484132     -13.37315      -7.018516      -8.1097327    
       140  -18268.904      47.705956     -18221.198      160.2559       282.35192      603961.67      407.04162      439.16453      0.84959844     15.365659     -2.5273308     -1.3955507    
       150  -18270.726      50.75848      -18219.968      170.51007      320.11307      603545.27      512.15293      455.23915     -7.0528873     -11.926501     -1.3597106     -5.4388756    
       160  -18272.871      54.115248     -18218.755      181.78627      320.52849      603496.28      460.1113       489.2094       12.264769      17.8376        1.0484631     -8.4237093    
       170  -18269.004      51.436955     -18217.567      172.78923      274.95083      603819.99      441.30236      394.82913     -11.278982     -13.473611     -6.032992       5.4563647    
       180  -18267.831      51.477732     -18216.353      172.92621      214.56819      604457.26      296.74265      339.63571      7.3261991      20.710916      9.1650905      7.5459209    
       190  -18264.956      49.882307     -18215.074      167.56679      102.84519      605311.84      155.34752      145.89602      7.2920187     -9.0144076     -13.393948      3.9016465    
       200  -18264.751      50.961252     -18213.79       171.19123     -38.931281      606244.54     -53.648263     -54.70781      -8.4377705     -4.2435286      7.449226       0.66870566   
       210  -18268.161      55.703329     -18212.457      187.12102     -170.63371      607104.34     -265.90798     -248.54838      2.5552326      1.2875736     -8.7774648      5.4841051    
       220  -18269.335      58.298476     -18211.037      195.83875     -262.1069       607761.72     -392.94652     -395.09008      1.7159204      2.3512602      7.4276422      4.6728124    
       230  -18267.34       57.754294     -18209.586      194.01071     -303.9785       608121.91     -469.92857     -443.5633       1.5563734      3.0722247      9.5877461     -4.2315531    
       240  -18263.448      55.277033     -18208.171      185.68899     -299.85933      608135.53     -419.69311     -477.53827     -2.3466154     -14.409291      0.9546632     -5.3869794    
       250  -18264.397      57.557064     -18206.84       193.34817     -251.27882      607802.93     -390.90613     -362.1243      -0.80602946     11.235857      4.9924343      1.5296528    
       260  -18268.271      62.763607     -18205.508      210.83821     -188.12523      607185.62     -269.21881     -300.93054      5.7736745     -13.987523      11.877243     -4.7888382    
       270  -18267.026      62.902896     -18204.123      211.30611     -87.246299      606386.63     -147.19792     -123.5576       9.0166138      8.4836814     -2.3766352     -2.7648769    
       280  -18262.879      60.227549     -18202.651      202.31897      27.219229      605529.49      71.365088      21.937712     -11.645112     -7.942749      -7.1056265     -4.1231922    
       290  -18261.483      60.418108     -18201.064      202.95911      163.55556      604736.95      229.63717      246.85409      14.175426      13.022179     -1.8286392     -9.7248876    
       300  -18256.746      57.312157     -18199.434      192.52546      244.47379      604133.43      374.00224      359.9145      -0.49537689    -15.005129      3.4140532     -11.777079    
       310  -18258.402      60.506383     -18197.896      203.25564      271.85254      603797.84      415.77913      397.63131      2.1471636      9.2915192     -1.7065256      0.047397252  
       320  -18258.472      62.079683     -18196.392      208.54074      262.01494      603765.63      388.20674      391.81378      6.0242966      6.6894803     -4.5865842      9.5439399    
       330  -18259.784      64.864097     -18194.92       217.89427      206.98708      604030.72      320.20477      303.02527     -2.2687961      2.9059473      10.38085       14.376351    
       340  -18255.179      61.753022     -18193.426      207.44341      148.42183      604529.69      195.80299      256.26714     -6.8046474      15.975784     -9.8482415     -0.92183167   
       350  -18252.939      61.049604     -18191.889      205.08046      64.206241      605174.36      126.3717       76.911332     -10.66431      -27.317103      8.7877711      7.7745682    
       360  -18255.965      65.614834     -18190.35       220.41617     -28.193739      605860.19     -59.611015     -26.471484      1.5012807      19.511335      5.2726185      14.819429    
       370  -18258          69.238216     -18188.762      232.58799     -114.73523      606489.07     -159.53082     -200.72687      16.052003     -32.054527     -12.792401      7.5159452    
       380  -18258.742      71.554435     -18187.188      240.36873     -208.84774      606976.96     -333.31655     -284.59401     -8.6326664      18.791256     -6.86114        9.8226044    
       390  -18255.843      70.259199     -18185.584      236.01772     -235.26739      607240.91     -324.71816     -374.6209      -6.4631066     -21.086188     -2.0211097      3.3779938    
       400  -18254.631      70.683419     -18183.947      237.44278     -213.68012      607246.47     -354.18812     -296.4203       9.5680392      7.0152925     -8.3014178     -8.2758461    
       410  -18250.819      68.47154      -18182.348      230.01254     -185.12505      607006.75     -294.13094     -265.04498      3.8007818     -12.240459     -13.660105      0.49877046   
       420  -18250.502      69.713451     -18180.788      234.18442     -128.58307      606560.15     -205.86128     -173.90371     -5.9842217      3.4059112      4.1419367     -4.1309699    
       430  -18250.739      71.494107     -18179.245      240.16608     -69.492269      605976.23     -133.09178     -73.508793     -1.8762355     -4.0029269     -12.190983     -5.1658723    
       440  -18250.753      73.125631     -18177.627      245.64677      30.611631      605340.25      49.265629      32.286516      10.282748     -19.389863      3.7182775      5.0825888    
       450  -18249.113      73.138695     -18175.975      245.69065      113.43581      604757         132.67012      201.76462      5.8726744      7.653196       12.824247      6.5030584    
       460  -18242.141      67.803393     -18174.338      227.76807      159.17713      604305.98      250.06299      233.49754     -6.0291343     -10.143425      10.747639     -4.5374856    
       470  -18245.513      72.721545     -18172.792      244.28934      196.68107      604033.98      267.83133      328.65137     -6.4394881      5.4734053     -2.1980099     -15.408513    
       480  -18250.884      79.705474     -18171.178      267.75006      206.8264       603983.04      320.87708      275.76462      23.837511     -40.457533     -7.0103667      8.0755413    
       490  -18246.048      76.427643     -18169.62       256.73903      147.47991      604163.97      197.84699      258.42292     -13.83019       21.155884      4.1951859     -11.461351    
       500  -18244.816      76.700869     -18168.116      257.65686      115.03843      604519.51      191.71627      149.30222      4.0968059     -41.18801      -2.3300169     -5.1297332    
       510  -18244.149      77.610509     -18166.538      260.71256      51.513902      604992.62      70.578071      79.471271      4.4923639     -6.4466594     -5.8776976     -5.8737836    
       520  -18245.593      80.579612     -18165.014      270.6865      -19.399292      605508.32     -3.9378909     -61.70954       7.4495559     -46.032179      7.331632      -13.567391    
       530  -18243.587      80.11506      -18163.472      269.12596     -104.61347      605987.04     -134.19899     -178.50026     -1.1411472     -8.0390736      16.442165     -15.54145     
       540  -18242.06       80.092452     -18161.967      269.05001     -173.7441       606345.89     -245.69732     -262.46392     -13.071041     -10.086417      11.664494     -7.7467784    
       550  -18243.44       83.035746     -18160.405      278.93725     -190.62598      606515.94     -245.22498     -328.97314      2.3201737     -22.603586      10.522572     -7.6284194    
       560  -18237.771      78.875578     -18158.895      264.96224     -178.42616      606471.16     -269.92853     -256.4047      -8.9452326     -3.1012948     -1.289542      -7.7391158    
       570  -18238.858      81.42186      -18157.436      273.51582     -148.95613      606219.89     -176.36762     -263.50745     -6.9933301     -37.609883     -3.8934003     -12.199401    
       580  -18238.228      82.234395     -18155.994      276.24532     -88.415352      605801.6      -157.03162     -105.6904      -2.5240417      12.721644      21.888966      9.975494     
       590  -18237.099      82.512087     -18154.587      277.17815     -16.791253      605290.01     -6.1508587     -48.873501      4.6505989     -44.525874     -2.3559852      8.873989     
       600  -18236.401      83.239631     -18153.162      279.62215      46.355393      604769.75      39.796006      98.378706      0.89146831    -3.9739726     -3.988751       11.759276    
       610  -18234.285      82.493798     -18151.791      277.11671      113.6461       604309.14      174.81717      168.60572     -2.4845947     -44.962816      10.071551     -7.1122969    
       620  -18236.597      86.173774     -18150.423      289.47865      159.31625      603976.61      220.84049      237.19689      19.911379      4.0305938     -8.8937581      3.8409563    
       630  -18234.621      85.483103     -18149.138      287.15852      155.76448      603824.77      224.9239       249.82867     -7.4591254     -28.415912     -2.4322332      16.803148    
       640  -18239.389      91.462162     -18147.927      307.24363      133.73437      603855.52      207.87554      192.3354       0.99216306    -19.135651     -24.359155      4.8192442    
       650  -18237.439      90.736747     -18146.702      304.80678      115.56216      604053.14      157.72131      182.89652      6.0686386     -4.5393494     -38.885511      14.18369     
       660  -18231.837      86.321006     -18145.516      289.97324      51.561463      604383.35      80.526535      92.067571     -17.909719     -33.077897     -3.0566487      6.3369652    
       670  -18234.16       89.804502     -18144.356      301.67514      19.087766      604771.94     -8.1464876      60.101523      5.3082612     -2.7157982     -16.637556     -1.3755709    
       680  -18227.108      83.892338     -18143.216      281.81475     -55.561594      605161.41     -59.917936     -84.607801     -22.159045     -45.147506      3.5647975     -7.329374     
       690  -18235.542      93.360959     -18142.182      313.62215     -68.228731      605485.79     -162.45748     -72.138974      29.910262      8.0273516     -4.2281325      26.377667    
       700  -18233.109      92.007196     -18141.102      309.07453     -113.52593      605725.25     -181.8928      -165.60048      6.9155029     -40.137144     -4.0553507     -0.80875578   
       710  -18231.92       91.733635     -18140.186      308.15557     -160.61497      605834.16     -287.70185     -185.19783     -8.9452229      0.17923983     9.1237728      16.179478    
       720  -18223.134      83.857116     -18139.277      281.69643     -150.90856      605761.54     -211.11008     -217.763       -23.85261      -31.728285      16.77776       11.059213    
       730  -18229.555      91.087403     -18138.467      305.98472     -112.40003      605512.28     -174.54147     -165.38447      2.7258408     -15.751142     -1.6867494      17.664026    
       740  -18229.162      91.46213      -18137.7        307.24352     -71.706291      605131.94     -105.90155     -104.58843     -4.6288912     -23.529693     -11.898935     -14.549672    
       750  -18230.022      93.026988     -18136.995      312.50026     -13.651448      604678.06     -6.3958889     -31.409875     -3.1485791     -46.079569     -10.106635      6.7899208    
       760  -18226.721      90.402521     -18136.319      303.68404      45.254093      604219.27      60.917207      93.219153     -18.374082     -9.2772331     -8.5411389      12.793822    
       770  -18230.742      95.026538     -18135.715      319.21724      120.60627      603822.19      213.3004       133.75038      14.768027     -55.216304      7.516595      -6.3931669    
       780  -18229.962      94.767905     -18135.194      318.34842      143.50728      603559.93      185.76114      238.05531      6.7054048      18.610767      7.615536      -12.66214     
       790  -18228.752      93.959634     -18134.792      315.63324      141.05041      603466.51      244.40774      190.44101     -11.697528     -48.628344      9.4100337     -20.428083    
       800  -18227.828      93.375062     -18134.453      313.66953      148.11279      603543.23      197.20337      248.26523     -1.1302307     -3.5107809      18.21478      -28.802552    
       810  -18230.542      96.327885     -18134.214      323.58878      107.56599      603786.2       182.04905      116.39946      24.24948      -50.89493       19.761238     -0.50608474   
       820  -18226.248      92.174889     -18134.073      309.63785      59.573113      604153.05      81.861119      96.326627      0.53159328    -18.583007      9.4264593     -18.630717    
       830  -18225.882      91.831628     -18134.05       308.48475     -17.633776      604574.47     -9.0464722     -21.684901     -22.169955     -35.572898     -4.5720225     -28.924492    
       840  -18225.628      91.585866     -18134.042      307.65918     -75.066395      604965.46     -106.74966     -112.15232     -6.2972018     -45.014975      10.688025     -1.4223916    
       850  -18227.866      93.756956     -18134.109      314.9524      -104.21017      605265.46     -144.22788     -172.38153      3.978911      -23.397353      7.822376      -22.132548    
       860  -18227.204      92.880012     -18134.324      312.00653     -149.98811      605437.17     -200.28704     -242.66763     -7.0096591     -43.351959      3.790265      -16.444458    
       870  -18227.996      93.414655     -18134.581      313.80253     -142.13711      605443.07     -210.08369     -198.22142     -18.106213     -27.348684     -4.85751        25.441378    
       880  -18227.987      93.080013     -18134.907      312.67839     -98.180751      605289.78     -106.2241      -203.91446      15.596313     -38.752521      19.771412     -15.087573    
       890  -18228.957      93.551312     -18135.406      314.26159     -65.998659      605017.64     -134.80291     -75.112057      11.918992     -10.389445      5.0321922      4.2431157    
       900  -18226.044      90.060533     -18135.983      302.53522     -46.303734      604667.1      -23.775843     -98.87528      -16.260079     -52.072836      2.1058125      2.449901     
       910  -18231.21       94.634657     -18136.575      317.90081      3.9569039      604275.42     -13.515017      33.019875     -7.6341462     -12.728872      0.92733045     8.5437213    
       920  -18230.452      93.272115     -18137.179      313.3237       64.062103      603899.77      128.49555      45.858218      17.83254      -33.639347     -18.295839      6.819658     
       930  -18230.654      92.80171      -18137.852      311.7435       86.676787      603599.75      133.3148       132.42059     -5.7050321     -26.35231      -12.834278     -0.77574228   
       940  -18228.487      89.906572     -18138.58       302.01803      108.51954      603404.2       186.4879       142.52009     -3.4493852     -24.373531     -40.97815       23.655608    
       950  -18229.764      90.474634     -18139.289      303.92628      95.244715      603328.81      181.04315      118.18611     -13.495112     -24.857928     -19.808296      28.338415    
       960  -18233.478      93.425197     -18140.052      313.83794      104.03167      603370.13      148.16334      152.38701      11.544655     -7.5521256     -23.999244      1.3334909    
       970  -18227.734      86.933018     -18140.801      292.02913      52.916353      603523.03      116.59043      65.768713     -23.610079     -24.766826     -7.1671105      21.566266    
       980  -18231.59       90.079383     -18141.511      302.59854      30.420639      603739.75      33.495591      70.42297      -12.656644     -21.757534      4.4916003      35.884521    
       990  -18228.573      86.388584     -18142.185      290.20025      18.747439      603989.65      58.513093     -4.3417688      2.0709921     -53.822279      0.66412368     12.22771     
      1000  -18229.817      86.950459     -18142.866      292.08772     -41.543751      604243.41     -92.595973     -8.3942557     -23.641026     -18.546922      9.2517212     -6.4613515    
      1001  -18229.948      87.014399     -18142.933      292.30251     -44.611873      604266.67     -90.207863     -17.493917     -26.133841     -20.493794      5.4773724     -9.8680789    
Loop time of 61.7802 on 4 procs for 1000 steps with 2304 atoms

Performance: 1.399 ns/day, 17.161 hours/ns, 16.186 timesteps/s, 37.293 katom-step/s
99.9% CPU use with 4 MPI tasks x no OpenMP threads

MPI task timing breakdown:
Section |  min time  |  avg time  |  max time  |%varavg| %total
---------------------------------------------------------------
Pair    | 0.0013835  | 29.577     | 59.487     | 543.8 | 47.87
Bond    | 7.6566e-05 | 0.00044291 | 0.00081741 |   0.0 |  0.00
Neigh   | 0.0039428  | 0.12339    | 0.24296    |  34.0 |  0.20
Comm    | 0.59216    | 30.219     | 59.845     | 532.8 | 48.91
Output  | 1.2394     | 1.3035     | 1.3471     |   3.5 |  2.11
Modify  | 0.13745    | 0.55325    | 1.2516     |  59.4 |  0.90
Other   |            | 0.00412    |            |       |  0.01

Nlocal:            576 ave        1161 max           0 min
Histogram: 2 0 0 0 0 0 0 0 0 2
Nghost:           1471 ave        2047 max         886 min
Histogram: 2 0 0 0 0 0 0 0 0 2
Neighs:              0 ave           0 max           0 min
Histogram: 4 0 0 0 0 0 0 0 0 0
FullNghs:      58718.5 ave      118357 max           0 min
Histogram: 2 0 0 0 0 0 0 0 0 2

Total # of neighbors = 234874
Ave neighs/atom = 101.94184
Ave special neighs/atom = 0
Neighbor list builds = 100
Dangerous builds not checked

Total wall time: 0:01:01
