# LAMMPS data file written by OVITO Basic 3.7.10
234 atoms
4 atom types
0.0 26.3999996186 xlo xhi
0.0 11.4315351648 ylo yhi
0.0 9.6000003815 zlo zhi
-6.5999999046 0.0 0.0 xy xz yz

Masses

1 58.6934  # Ni
2 14.0067  # N
3 12.0107  # C
4 1.00794  # H

Atoms  # atomic

1 1 0.0073261187 11.4087861812 1.6000320156
2 1 9.9010555204 5.6965627519 1.6000320156
3 1 3.3009899259 5.6893606447 1.6000320156
4 1 0.0073261187 11.4087861812 4.8000001907
5 1 9.9010555204 5.6965627519 4.8000001907
6 1 3.3009899259 5.6893606447 4.8000001907
7 1 0.0073261187 11.4087861812 7.9999680875
8 1 9.9010555204 5.6965627519 7.9999680875
9 1 3.3009899259 5.6893606447 7.9999680875
10 2 7.839149966 1.3248005645 1.6000320156
11 2 -1.22641187 10.0638663777 1.6000320156
12 2 8.1178674405 6.0898077445 1.6000320156
13 2 -1.5169439517 5.3003456174 1.6000320156
14 2 3.8524860434 3.9485664355 1.6000320156
15 2 2.7530579207 7.4306120582 1.6000320156
16 2 -2.7475139669 7.4372424972 1.6000320156
17 2 9.3530576273 3.9554254824 1.6000320156
18 2 1.2395456191 10.0610086997 1.6000320156
19 2 5.373257731 1.3222857068 1.6000320156
20 2 1.5179340111 5.2963445915 1.6000320156
21 2 5.0827917022 6.0854633153 1.6000320156
22 2 7.839149966 1.3248005645 4.8000001907
23 2 -1.22641187 10.0638663777 4.8000001907
24 2 8.1178674405 6.0898077445 4.8000001907
25 2 -1.5169439517 5.3003456174 4.8000001907
26 2 3.8524860434 3.9485664355 4.8000001907
27 2 2.7530579207 7.4306120582 4.8000001907
28 2 -2.7475139669 7.4372424972 4.8000001907
29 2 9.3530576273 3.9554254824 4.8000001907
30 2 1.2395456191 10.0610086997 4.8000001907
31 2 5.373257731 1.3222857068 4.8000001907
32 2 1.5179340111 5.2963445915 4.8000001907
33 2 5.0827917022 6.0854633153 4.8000001907
34 2 7.839149966 1.3248005645 7.9999680875
35 2 -1.22641187 10.0638663777 7.9999680875
36 2 8.1178674405 6.0898077445 7.9999680875
37 2 -1.5169439517 5.3003456174 7.9999680875
38 2 3.8524860434 3.9485664355 7.9999680875
39 2 2.7530579207 7.4306120582 7.9999680875
40 2 -2.7475139669 7.4372424972 7.9999680875
41 2 9.3530576273 3.9554254824 7.9999680875
42 2 1.2395456191 10.0610086997 7.9999680875
43 2 5.373257731 1.3222857068 7.9999680875
44 2 1.5179340111 5.2963445915 7.9999680875
45 2 5.0827917022 6.0854633153 7.9999680875
46 3 7.3186736765 2.5580345438 1.6000320156
47 3 -0.7093022273 8.8296035374 1.6000320156
48 3 7.310093637 5.0224450775 1.6000320156
49 3 -0.7065960888 6.3655360755 1.6000320156
50 3 5.1804721694 3.7826951346 1.6000320156
51 3 1.4256658078 7.5997989158 1.6000320156
52 3 -1.4195279399 7.6033427374 1.6000320156
53 3 8.0255337323 3.7862386133 1.6000320156
54 3 0.7188061415 8.8280029967 1.6000320156
55 3 5.8906321855 2.5565484671 1.6000320156
56 3 0.7102259106 6.3635927945 1.6000320156
57 3 5.8932722251 5.0205014651 1.6000320156
58 3 7.3186736765 2.5580345438 4.8000001907
59 3 -0.7093022273 8.8296035374 4.8000001907
60 3 7.310093637 5.0224450775 4.8000001907
61 3 -0.7065960888 6.3655360755 4.8000001907
62 3 5.1804721694 3.7826951346 4.8000001907
63 3 1.4256658078 7.5997989158 4.8000001907
64 3 -1.4195279399 7.6033427374 4.8000001907
65 3 8.0255337323 3.7862386133 4.8000001907
66 3 0.7188061415 8.8280029967 4.8000001907
67 3 5.8906321855 2.5565484671 4.8000001907
68 3 0.7102259106 6.3635927945 4.8000001907
69 3 5.8932722251 5.0205014651 4.8000001907
70 3 7.3186736765 2.5580345438 7.9999680875
71 3 -0.7093022273 8.8296035374 7.9999680875
72 3 7.310093637 5.0224450775 7.9999680875
73 3 -0.7065960888 6.3655360755 7.9999680875
74 3 5.1804721694 3.7826951346 7.9999680875
75 3 1.4256658078 7.5997989158 7.9999680875
76 3 -1.4195279399 7.6033427374 7.9999680875
77 3 8.0255337323 3.7862386133 7.9999680875
78 3 0.7188061415 8.8280029967 7.9999680875
79 3 5.8906321855 2.5565484671 7.9999680875
80 3 0.7102259106 6.3635927945 7.9999680875
81 3 5.8932722251 5.0205014651 7.9999680875
82 4 -1.0936200106 4.3796497523 1.6000320156
83 4 -3.3312181564 8.2658004174 1.6000320156
84 4 -2.2353538555 10.1577193271 1.6000320156
85 4 2.2487523504 10.1518888212 1.6000320156
86 4 1.0917062614 4.3770203392 1.6000320156
87 4 3.3390062158 8.2573404984 1.6000320156
88 4 3.2690458076 3.1200088468 1.6000320156
89 4 5.5061158281 7.0061591804 1.6000320156
90 4 4.3642499568 1.2283184649 1.6000320156
91 4 8.8484216082 1.2340342439 1.6000320156
92 4 7.6918375523 7.0092457977 1.6000320156
93 4 9.9390061138 3.1286966878 1.6000320156
94 4 -1.0936200106 4.3796497523 4.8000001907
95 4 -3.3312181564 8.2658004174 4.8000001907
96 4 -2.2353538555 10.1577193271 4.8000001907
97 4 2.2487523504 10.1518888212 4.8000001907
98 4 1.0917062614 4.3770203392 4.8000001907
99 4 3.3390062158 8.2573404984 4.8000001907
100 4 3.2690458076 3.1200088468 4.8000001907
101 4 5.5061158281 7.0061591804 4.8000001907
102 4 4.3642499568 1.2283184649 4.8000001907
103 4 8.8484216082 1.2340342439 4.8000001907
104 4 7.6918375523 7.0092457977 4.8000001907
105 4 9.9390061138 3.1286966878 4.8000001907
106 4 -1.0936200106 4.3796497523 7.9999680875
107 4 -3.3312181564 8.2658004174 7.9999680875
108 4 -2.2353538555 10.1577193271 7.9999680875
109 4 2.2487523504 10.1518888212 7.9999680875
110 4 1.0917062614 4.3770203392 7.9999680875
111 4 3.3390062158 8.2573404984 7.9999680875
112 4 3.2690458076 3.1200088468 7.9999680875
113 4 5.5061158281 7.0061591804 7.9999680875
114 4 4.3642499568 1.2283184649 7.9999680875
115 4 8.8484216082 1.2340342439 7.9999680875
116 4 7.6918375523 7.0092457977 7.9999680875
117 4 9.9390061138 3.1286966878 7.9999680875
118 1 13.207325928 11.4087861812 1.6000320156
119 1 23.1010553297 5.6965627519 1.6000320156
120 1 16.5009897352 5.6893606447 1.6000320156
121 1 13.207325928 11.4087861812 4.8000001907
122 1 23.1010553297 5.6965627519 4.8000001907
123 1 16.5009897352 5.6893606447 4.8000001907
124 1 13.207325928 11.4087861812 7.9999680875
125 1 23.1010553297 5.6965627519 7.9999680875
126 1 16.5009897352 5.6893606447 7.9999680875
127 2 21.0391497753 1.3248005645 1.6000320156
128 2 11.9735879393 10.0638663777 1.6000320156
129 2 21.3178672498 6.0898077445 1.6000320156
130 2 11.6830558576 5.3003456174 1.6000320156
131 2 17.0524858527 3.9485664355 1.6000320156
132 2 15.95305773 7.4306120582 1.6000320156
133 2 10.4524858424 7.4372424972 1.6000320156
134 2 22.5530574366 3.9554254824 1.6000320156
135 2 14.4395454284 10.0610086997 1.6000320156
136 2 18.5732575403 1.3222857068 1.6000320156
137 2 14.7179338204 5.2963445915 1.6000320156
138 2 18.2827915115 6.0854633153 1.6000320156
139 2 21.0391497753 1.3248005645 4.8000001907
140 2 11.9735879393 10.0638663777 4.8000001907
141 2 21.3178672498 6.0898077445 4.8000001907
142 2 11.6830558576 5.3003456174 4.8000001907
143 2 17.0524858527 3.9485664355 4.8000001907
144 2 15.95305773 7.4306120582 4.8000001907
145 2 10.4524858424 7.4372424972 4.8000001907
146 2 22.5530574366 3.9554254824 4.8000001907
147 2 14.4395454284 10.0610086997 4.8000001907
148 2 18.5732575403 1.3222857068 4.8000001907
149 2 14.7179338204 5.2963445915 4.8000001907
150 2 18.2827915115 6.0854633153 4.8000001907
151 2 21.0391497753 1.3248005645 7.9999680875
152 2 11.9735879393 10.0638663777 7.9999680875
153 2 21.3178672498 6.0898077445 7.9999680875
154 2 11.6830558576 5.3003456174 7.9999680875
155 2 17.0524858527 3.9485664355 7.9999680875
156 2 15.95305773 7.4306120582 7.9999680875
157 2 10.4524858424 7.4372424972 7.9999680875
158 2 22.5530574366 3.9554254824 7.9999680875
159 2 14.4395454284 10.0610086997 7.9999680875
160 2 18.5732575403 1.3222857068 7.9999680875
161 2 14.7179338204 5.2963445915 7.9999680875
162 2 18.2827915115 6.0854633153 7.9999680875
163 3 20.5186734858 2.5580345438 1.6000320156
164 3 12.490697582 8.8296035374 1.6000320156
165 3 20.5100934463 5.0224450775 1.6000320156
166 3 12.4934037205 6.3655360755 1.6000320156
167 3 18.3804719787 3.7826951346 1.6000320156
168 3 14.6256656171 7.5997989158 1.6000320156
169 3 11.7804718694 7.6033427374 1.6000320156
170 3 21.2255335416 3.7862386133 1.6000320156
171 3 13.9188059508 8.8280029967 1.6000320156
172 3 19.0906319948 2.5565484671 1.6000320156
173 3 13.9102257199 6.3635927945 1.6000320156
174 3 19.0932720344 5.0205014651 1.6000320156
175 3 20.5186734858 2.5580345438 4.8000001907
176 3 12.490697582 8.8296035374 4.8000001907
177 3 20.5100934463 5.0224450775 4.8000001907
178 3 12.4934037205 6.3655360755 4.8000001907
179 3 18.3804719787 3.7826951346 4.8000001907
180 3 14.6256656171 7.5997989158 4.8000001907
181 3 11.7804718694 7.6033427374 4.8000001907
182 3 21.2255335416 3.7862386133 4.8000001907
183 3 13.9188059508 8.8280029967 4.8000001907
184 3 19.0906319948 2.5565484671 4.8000001907
185 3 13.9102257199 6.3635927945 4.8000001907
186 3 19.0932720344 5.0205014651 4.8000001907
187 3 20.5186734858 2.5580345438 7.9999680875
188 3 12.490697582 8.8296035374 7.9999680875
189 3 20.5100934463 5.0224450775 7.9999680875
190 3 12.4934037205 6.3655360755 7.9999680875
191 3 18.3804719787 3.7826951346 7.9999680875
192 3 14.6256656171 7.5997989158 7.9999680875
193 3 11.7804718694 7.6033427374 7.9999680875
194 3 21.2255335416 3.7862386133 7.9999680875
195 3 13.9188059508 8.8280029967 7.9999680875
196 3 19.0906319948 2.5565484671 7.9999680875
197 3 13.9102257199 6.3635927945 7.9999680875
198 3 19.0932720344 5.0205014651 7.9999680875
199 4 12.1063797987 4.3796497523 1.6000320156
200 4 9.8687816529 8.2658004174 1.6000320156
201 4 10.9646459538 10.1577193271 1.6000320156
202 4 15.4487521597 10.1518888212 1.6000320156
203 4 14.2917060707 4.3770203392 1.6000320156
204 4 16.5390060251 8.2573404984 1.6000320156
205 4 16.4690456169 3.1200088468 1.6000320156
206 4 18.7061156374 7.0061591804 1.6000320156
207 4 17.5642497661 1.2283184649 1.6000320156
208 4 22.0484214175 1.2340342439 1.6000320156
209 4 20.8918373616 7.0092457977 1.6000320156
210 4 23.1390059231 3.1286966878 1.6000320156
211 4 12.1063797987 4.3796497523 4.8000001907
212 4 9.8687816529 8.2658004174 4.8000001907
213 4 10.9646459538 10.1577193271 4.8000001907
214 4 15.4487521597 10.1518888212 4.8000001907
215 4 14.2917060707 4.3770203392 4.8000001907
216 4 16.5390060251 8.2573404984 4.8000001907
217 4 16.4690456169 3.1200088468 4.8000001907
218 4 18.7061156374 7.0061591804 4.8000001907
219 4 17.5642497661 1.2283184649 4.8000001907
220 4 22.0484214175 1.2340342439 4.8000001907
221 4 20.8918373616 7.0092457977 4.8000001907
222 4 23.1390059231 3.1286966878 4.8000001907
223 4 12.1063797987 4.3796497523 7.9999680875
224 4 9.8687816529 8.2658004174 7.9999680875
225 4 10.9646459538 10.1577193271 7.9999680875
226 4 15.4487521597 10.1518888212 7.9999680875
227 4 14.2917060707 4.3770203392 7.9999680875
228 4 16.5390060251 8.2573404984 7.9999680875
229 4 16.4690456169 3.1200088468 7.9999680875
230 4 18.7061156374 7.0061591804 7.9999680875
231 4 17.5642497661 1.2283184649 7.9999680875
232 4 22.0484214175 1.2340342439 7.9999680875
233 4 20.8918373616 7.0092457977 7.9999680875
234 4 23.1390059231 3.1286966878 7.9999680875
