LAMMPS (21 Nov 2023 - Development - patch_21Nov2023-382-g3206608dc0-modified)
units           metal
boundary        p p p
atom_style      full

neigh_modify    every 10 delay 0 check no

read_data   C.bilayer.data
Reading data file ...
  triclinic box = (-33.215409 -19.218771 -50) to (16.018191 23.423596 50) with tilt (24.616577 0 0)
WARNING: Triclinic box skew is large. LAMMPS will run inefficiently. (../domain.cpp:220)
  1 by 1 by 4 MPI processor grid
  reading atoms ...
  1600 atoms
Finding 1-2 1-3 1-4 neighbors ...
  special bond factors lj:    0        0        0       
  special bond factors coul:  0        0        0       
     0 = max # of 1-2 neighbors
     0 = max # of 1-3 neighbors
     0 = max # of 1-4 neighbors
     1 = max # of special neighbors
  special bonds CPU = 0.000 seconds
  read_data CPU = 0.006 seconds
mass        1 12.01
mass        2 12.01

pair_style  nep
pair_coeff * * nep.C.GAP2020 C C

compute    1 all pe/atom
compute    pe all reduce sum c_1
dump 1 all custom 1 out.dump id type x y z fx fy fz
run 1
WARNING: No fixes with time integration, atoms won't move (../verlet.cpp:60)
Neighbor list info ...
  update: every = 10 steps, delay = 0 steps, check = no
  max neighbors/atom: 2000, page size: 100000
  master list distance cutoff = 9
  ghost atom cutoff = 9
  binsize = 4.5, bins = 17 10 23
  1 neighbor lists, perpetual/occasional/extra = 1 0 0
  (1) pair nep, perpetual
      attributes: full, newton on
      pair build: full/bin
      stencil: full/bin/3d
      bin: standard
Per MPI rank memory allocation (min/avg/max) = 5.518 | 5.959 | 6.849 Mbytes
   Step          Temp          E_pair         E_mol          TotEng         Press     
         0   0             -12761.655      0             -12761.655      809.11532    
         1   0             -12761.655      0             -12761.655      809.11532    
Loop time of 0.101977 on 4 procs for 1 steps with 1600 atoms

Performance: 0.847 ns/day, 28.327 hours/ns, 9.806 timesteps/s, 15.690 katom-step/s
100.0% CPU use with 4 MPI tasks x no OpenMP threads

MPI task timing breakdown:
Section |  min time  |  avg time  |  max time  |%varavg| %total
---------------------------------------------------------------
Pair    | 1.453e-06  | 0.025062   | 0.10024    |  27.4 | 24.58
Bond    | 9.4e-08    | 2.6725e-07 | 6.93e-07   |   0.0 |  0.00
Neigh   | 0          | 0          | 0          |   0.0 |  0.00
Comm    | 1.498e-06  | 0.025102   | 0.10031    |  27.4 | 24.62
Output  | 0.0015554  | 0.051759   | 0.10196    |  22.1 | 50.76
Modify  | 3.91e-07   | 6.78e-07   | 1.186e-06  |   0.0 |  0.00
Other   |            | 5.29e-05   |            |       |  0.05

Nlocal:            400 ave        1600 max           0 min
Histogram: 3 0 0 0 0 0 0 0 0 1
Nghost:           1225 ave        3250 max           0 min
Histogram: 2 0 0 0 0 1 0 0 0 1
Neighs:              0 ave           0 max           0 min
Histogram: 4 0 0 0 0 0 0 0 0 0
FullNghs:        72400 ave      289600 max           0 min
Histogram: 3 0 0 0 0 0 0 0 0 1

Total # of neighbors = 289600
Ave neighs/atom = 181
Ave special neighs/atom = 0
Neighbor list builds = 0
Dangerous builds not checked
velocity        all create 300 23456789
fix             1 all npt temp 300 300 0.1 iso 0 0 1
fix             2 all momentum 1 linear 1 1 1
timestep        0.001
thermo_style    custom step pe ke etotal temp press vol pxx pyy pzz pxy pxz pyz
thermo          10
dump 20 all custom 20 out.dump id type x y z fx fy fz
run             1000
Per MPI rank memory allocation (min/avg/max) = 5.969 | 6.638 | 8.213 Mbytes
   Step         PotEng         KinEng         TotEng          Temp          Press          Volume          Pxx            Pyy            Pzz            Pxy            Pxz            Pyz      
         1  -12761.655      62.006092     -12699.649      300            1124.5799      209943.72      1859.3442      1761.9602     -247.56478     -5.1105456     -1.3424365      7.8890841    
        10  -12725.308      25.952864     -12699.355      125.56604      970.01146      210040.99      1764.4386      1703.0137     -557.41785      55.519767     -1.9649228     -5.2964986    
        20  -12724.41       25.307097     -12699.103      122.44167      790.56009      210335.25      1463.8632      1388.4512     -480.63417     -39.871593      0.37245245     3.0254426    
        30  -12724.068      25.492002     -12698.576      123.33628      404.41931      210768.45      895.33421      793.03356     -475.10985      93.352754     -3.0032697     -4.357422     
        40  -12727.623      29.501634     -12698.122      142.73582     -53.942932      211267.06      150.1482       92.98372      -404.96072     -74.021218      6.2434593      13.567773    
        50  -12731.493      33.936132     -12697.556      164.19096     -453.32013      211749.45     -426.33389     -582.66439     -350.96211      64.053314     -5.2316518     -11.421468    
        60  -12729.1        32.222255     -12696.878      155.89882     -780.52431      212142.28     -992.75824     -998.36672     -350.44797     -16.152826      16.581901     -8.4258107    
        70  -12729.002      32.904332     -12696.098      159.19887     -879.15591      212380.39     -1125.8313     -1261.6328     -250.00363      37.05929      -12.823371      21.503188    
        80  -12729.325      34.014378     -12695.311      164.56953     -858.7549       212435.87     -1206.3978     -1247.9257     -121.9412      -2.1778991     -36.776031      12.925912    
        90  -12727.844      33.17915      -12694.665      160.5285      -847.31708      212310.56     -1116.547      -1268.0535     -157.35064     -1.1438181     -9.241924       12.648608    
       100  -12734.1        40.015137     -12694.085      193.60261     -577.96997      212023.41     -840.9342      -910.12745      17.151761      47.422011     -8.6343477      12.209733    
       110  -12731.691      38.374843     -12693.316      185.66648     -233.74968      211633.27     -336.03013     -456.19166      90.972745     -42.407089     -25.406717      15.142995    
       120  -12728.255      35.809722     -12692.446      173.25582      143.22423      211209.39      206.97292      97.728232      124.97153      91.154105     -11.919321     -20.643246    
       130  -12725.76       34.273082     -12691.487      165.8212       492.96937      210819.04      680.00878      617.07313      181.8262      -54.209805     -2.9551954      15.064005    
       140  -12726.039      35.523967     -12690.515      171.87327      721.76381      210526.83      996.64508      906.15705      262.48931      82.244862     -34.432775      29.81426     
       150  -12727.075      37.501561     -12689.573      181.44134      809.29066      210379.87      1056.5161      1101.8825      269.4734      -51.587195     -45.833438      19.993202    
       160  -12726.832      38.17915      -12688.653      184.71967      816.15111      210398.27      1112.389       1009.3028      326.76157      57.777387     -29.205814      39.326191    
       170  -12722.378      34.578353     -12687.8        167.29818      662.30942      210576.86      853.89014      865.10383      267.9343      -14.078249     -40.032847      23.372073    
       180  -12723.565      36.636405     -12686.929      177.25551      459.97946      210879.72      556.06006      480.49341      343.38491     -4.0515692     -26.942729      0.29394362   
       190  -12723.539      37.53219      -12686.006      181.58953      135.37342      211259.62      37.536519      32.272152      336.31158      15.403607     -33.51534       33.106771    
       200  -12722.905      37.834227     -12685.071      183.05086     -284.62258      211654.11     -536.72032     -589.74724      272.59981     -60.032326     -42.224866      66.959272    
       210  -12724.52       40.451876     -12684.068      195.71565     -524.90815      211990.55     -936.85676     -960.73324      322.86555      55.697948     -35.90158       17.354069    
       220  -12722.964      40.038148     -12682.926      193.71394     -660.51827      212220.06     -1154.5604     -1155.1717      328.17724     -86.103629     -83.462051      41.756786    
       230  -12721.416      39.554729     -12681.861      191.37505     -729.21428      212312.25     -1221.6142     -1299.6722      333.64354      66.732167     -53.852935      71.25116     
       240  -12720.155      39.302936     -12680.852      190.15681     -738.59954      212253.73     -1266.3806     -1264.9587      315.54073     -76.700467     -75.26606       29.109276    
       250  -12723.115      43.173455     -12679.942      208.88329     -636.17838      212050.97     -1029.7767     -1146.3613      267.60281      68.268245     -64.21502       75.279768    
       260  -12720.126      41.163911     -12678.963      199.16065     -365.80699      211734.26     -700.16513     -704.12253      306.8667      -26.44589      -39.549949      41.761096    
       270  -12717.73       39.82514      -12677.905      192.68336     -28.12127       211357.14     -138.12806     -257.39951      311.16375     -19.490195     -81.447772      40.981476    
       280  -12717.198      40.435457     -12676.762      195.63621      272.09752      210981.29      249.22046      273.56882      293.50329      14.786163     -92.486487      70.462271    
       290  -12717.486      41.911852     -12675.574      202.77936      495.59518      210663.81      629.9102       543.71064      313.1647      -51.466234     -84.526741      76.281263    
       300  -12717.944      43.490094     -12674.454      210.41527      589.02935      210448.56      792.57073      735.87192      238.64538      55.569056     -119.14317      84.588514    
       310  -12717.518      44.210498     -12673.308      213.90075      658.43673      210357.69      893.23262      823.15113      258.92645     -107.65648     -128.38375      90.153513    
       320  -12718.451      46.287066     -12672.164      223.94767      666.98415      210400.31      885.37521      834.26494      281.31231      82.851197     -116.35958      73.635002    
       330  -12715.5        44.447794     -12671.052      215.04884      553.12798      210570.76      682.00155      686.42974      290.95265     -70.396696     -123.42385      101.22823    
       340  -12715.621      45.645377     -12669.976      220.84303      309.04803      210840.09      401.08708      298.47624      227.58077      62.489165     -128.96668      111.24639    
       350  -12717.922      48.990707     -12668.931      237.02852      11.01995       211161        -85.712406     -100.25399      219.02625     -47.347466     -164.2737       106.26356    
       360  -12720.459      52.706695     -12667.752      255.00734     -226.71341      211480.58     -391.67292     -493.55569      205.08837     -6.9694458     -167.75006      137.72593    
       370  -12717.132      50.67371      -12666.459      245.17128     -406.01039      211752.06     -712.16147     -707.65396      201.78428      19.821898     -144.3413       130.02312    
       380  -12715.289      50.049223     -12665.24       242.14987     -575.83405      211935.64     -845.94145     -977.58226      96.021561     -54.294576     -187.1673       106.67425    
       390  -12712.425      48.370916     -12664.054      234.02983     -650.35303      211997.26     -931.19346     -1078.7035      58.83785       57.505617     -196.68265      149.25617    
       400  -12716.995      54.061498     -12662.933      261.5622      -567.28693      211927.32     -852.23685     -908.11962      58.495677     -108.32563     -164.06079      158.0867     
       410  -12713.308      51.52793      -12661.78       249.3042      -493.38593      211745.35     -679.62819     -734.78758     -65.742002      120.35365     -218.17725      175.79376    
       420  -12713.289      52.575451     -12660.713      254.37235     -269.96071      211473.75     -280.663       -389.17578     -140.04336     -83.008696     -221.45898      127.10989    
       430  -12715.436      55.846353     -12659.59       270.19774     -16.526562      211155.05      135.24919     -21.014513     -163.81436      53.796799     -204.17077      155.49434    
       440  -12713.101      54.656572     -12658.444      264.4413       182.67414      210838.61      407.32225      435.48942     -294.78923     -12.844081     -212.54791      159.32047    
       450  -12715.256      57.904916     -12657.351      280.15755      313.66825      210564.48      715.28001      618.79217     -393.06743      42.346338     -189.2202       127.87215    
       460  -12714.288      58.009416     -12656.279      280.66315      368.47376      210362.33      846.68506      807.16805     -548.43184      23.452867     -148.24629      128.84623    
       470  -12715.11       59.880164     -12655.23       289.71426      452.22111      210246.44      1079.2163      898.26103     -620.81399     -37.824152     -176.95808      150.5688     
       480  -12714.219      60.112883     -12654.106      290.84021      475.02527      210226.6       1086.6952      1034.9095     -696.52885      91.928842     -150.24227      79.802419    
       490  -12709.316      56.246223     -12653.07       272.13241      403.2936       210298.87      1054.3356      934.92501     -779.37985     -33.1595       -128.53336      37.732224    
       500  -12714.785      62.651742     -12652.133      303.12381      337.92805      210446.76      929.6081       799.00558     -714.82953      130.53326     -99.61125       84.029291    
       510  -12713.118      61.899385     -12651.219      299.48373      63.437141      210653.46      585.95112      416.28368     -811.92337     -56.352539     -94.777683      49.989296    
       520  -12709.896      59.55949      -12650.337      288.16277     -123.1763       210872.02      300.69871      138.55648     -808.78409      136.8221      -85.462283      80.790086    
       530  -12712.69       63.28458      -12649.405      306.18562     -243.97399      211062.31      63.429222     -60.958276     -734.39291     -7.9079799     -49.124327      60.045991    
       540  -12708.501      59.995215     -12648.505      290.27091     -328.50967      211197.83      3.8093361     -281.39549     -707.94284      98.271772     -64.968457      37.905342    
       550  -12713.16       65.431834     -12647.728      316.57455     -311.13556      211261.75     -120.33393     -280.35551     -532.71723      6.3534795     -12.56925      -23.381261    
       560  -12713.949      66.898642     -12647.05       323.67131     -310.72854      211258.54     -76.923778     -376.51808     -478.74378     -2.4415539     -44.109274      31.783055    
       570  -12714.59       68.043916     -12646.546      329.21241     -257.30818      211194.5      -139.36022     -327.89661     -304.66771      89.600818     -28.709441      32.074921    
       580  -12713.39       67.290292     -12646.1        325.5662      -130.30347      211084.95      45.905568     -243.37538     -193.44059     -60.607984     -27.171081      14.579132    
       590  -12712.046      66.312956     -12645.733      320.83762      19.745582      210953.25      202.04091     -98.508588     -44.295579      92.22328      -47.04812      -27.718472    
       600  -12717.888      72.352202     -12645.535      350.0569       128.14697      210826.38      243.14896      24.859256      116.4327      -107.7757       12.62306      -65.349886    
       610  -12715.687      70.211894     -12645.475      339.7016       251.98874      210731.47      371.09873      133.23438      251.63313      112.22151      38.777434     -88.292424    
       620  -12712.372      66.815692     -12645.556      323.26997      271.61911      210688.66      400.77502      141.33253      272.74979     -67.215918      81.58003      -117.76806    
       630  -12714.047      68.245278     -12645.802      330.18665      254.19644      210700.06      373.26927      45.215081      344.10496      70.998062      96.160909     -151.89917    
       640  -12712.074      65.896742     -12646.177      318.82388      248.94084      210761.18      247.03761      25.992214      473.79269      1.8373232      56.86722      -183.2195     
       650  -12715.884      69.18413      -12646.7        334.72903      135.60189      210867.72      112.1106      -225.38043      520.0755       27.48199       72.042254     -175.9948     
       660  -12711.66       64.420742     -12647.239      311.68264      12.925341      211001.67     -120.96589     -394.88534      554.62726      101.10227      36.116581     -195.5789     
       670  -12711.832      64.013117     -12647.819      309.71046     -110.3647       211136.55     -269.09647     -669.12507      607.12743      5.4750393      97.240501     -204.54178    
       680  -12708.916      60.525563     -12648.391      292.83685     -183.98794      211246.83     -485.22194     -740.27569      673.5338       167.45717      89.526594     -222.36122    
       690  -12710.483      61.507139     -12648.975      297.58595     -236.05768      211316.55     -552.15204     -877.63061      721.60962      11.19214       3.6964873     -232.61625    
       700  -12707.064      57.542005     -12649.522      278.40171     -302.95916      211334.35     -625.65199     -934.41558      651.19009      223.20285      65.654244     -170.05723    
       710  -12710.561      60.559903     -12650.001      293.003       -255.2666       211292.92     -623.2104      -863.51319      720.92378      74.334108      5.9363839     -153.97268    
       720  -12714.837      64.352871     -12650.484      311.35427     -160.01019      211203.57     -478.36872     -760.17495      758.5131       187.68519     -15.723128     -159.05548    
       730  -12714.031      63.087637     -12650.943      305.23277     -69.751962      211086.52     -336.09476     -584.59225      711.43113      157.16597     -52.655584     -118.14451    
       740  -12711.575      60.230423     -12651.344      291.4089       31.115643      210959.92     -120.76095     -462.1855       676.29338      131.67552     -34.133113     -104.63532    
       750  -12712.779      61.068707     -12651.71       295.46471      136.1663       210841        -1.043099      -266.03598      675.57798      254.64049     -64.072627     -105.76892    
       760  -12711.858      59.78448      -12652.074      289.25132      193.0268       210749.29      167.88989     -217.13616      628.32666      95.321571     -124.24341     -39.837903    
       770  -12715.092      62.656916     -12652.435      303.14884      169.13213      210695.97      188.47263     -164.89222      483.81597      218.11248     -121.31825     -62.816759    
       780  -12717.864      65.104815     -12652.76       314.99235      229.85481      210681.26      281.982       -106.38236      513.96478      38.339649     -126.18248     -27.367346    
       790  -12714.23       61.156883     -12653.073      295.89133      187.96111      210712.28      297.3494      -137.7378       404.27174      216.6684      -159.89821      25.124585    
       800  -12714.427      60.984328     -12653.443      295.05647      106.19006      210778.1       230.07678     -207.7142       296.20761      66.971866     -136.43243     -20.606228    
       810  -12713.109      59.242699     -12653.866      286.63006     -67.225716      210856.62      110.23716     -384.10596      72.191654      133.09979     -137.22835     -42.493463    
       820  -12713.86       59.5831       -12654.277      288.277       -176.58255      210915.88     -32.617582     -465.52956     -31.600511      48.954729     -138.59172      13.980459    
       830  -12722.364      67.650482     -12654.714      327.30888     -217.47994      210938.95     -18.336394     -537.19635     -96.907075      34.757147     -111.71338      51.774883    
       840  -12717.752      62.638124     -12655.114      303.05792     -333.70136      210921.17     -97.116715     -531.34832     -372.63905      73.557673     -108.87344      12.443285    
       850  -12720.476      64.932268     -12655.544      314.15753     -270.546        210846.11      58.321251     -383.95964     -485.99959     -18.449756     -108.09722      46.124381    
       860  -12715.405      59.500697     -12655.904      287.87831     -200.44927      210720.85      233.42303     -175.53733     -659.23353      115.63758     -102.5029      -18.77116     
       870  -12714.18       57.959052     -12656.221      280.41948     -96.303912      210557.51      482.8699       31.617993     -803.39962     -36.357091     -45.903252      26.551194    
       880  -12716.475      59.960658     -12656.514      290.10371      34.664992      210375.09      725.75546      264.74078     -886.50126      149.33631     -74.214509      23.316729    
       890  -12716.39       59.653629     -12656.737      288.61824      136.14879      210201.36      872.87141      508.44234     -972.86738      5.8677472     -28.972732      31.252712    
       900  -12716.396      59.508036     -12656.888      287.91382      250.30017      210059.09      1069.1764      655.1208      -973.39672      142.3516      -33.8119        7.2838793    
       910  -12712.609      55.665648     -12656.944      269.32345      292.66476      209967.58      1186.3869      753.27667     -1061.6693      77.936474      17.668143      4.2607583    
       920  -12715.479      58.497801     -12656.981      283.02607      340.57011      209933.67      1230.3619      771.19764     -979.84916      113.48111      31.031693      15.645909    
       930  -12713.975      57.010109     -12656.965      275.82827      339.28966      209962.94      1148.2962      790.44616     -920.87334      156.26705      34.174066     -17.379968    
       940  -12716.026      59.102589     -12656.924      285.95217      280.66145      210054.7       1057.3313      581.79243     -797.13931      84.581541      62.405979     -22.827925    
       950  -12715.3        58.48102      -12656.819      282.94488      116.48675      210197.41      765.38011      332.87702     -748.79687      182.26161      89.819987     -20.259599    
       960  -12719.973      63.322913     -12656.65       306.37109      36.782935      210365.88      551.52616      106.8017      -547.97906      71.763976      112.61707     -54.890238    
       970  -12714.568      58.171033     -12656.397      281.44509     -87.362169      210540.27      312.98515     -134.35283     -440.71883      200.04394      172.88677     -34.673392    
       980  -12719.426      63.27078      -12656.155      306.11886     -167.84139      210697.68      69.00315      -324.85847     -247.66885      28.027816      193.37383     -106.46327    
       990  -12717.433      61.589367     -12655.843      297.98379     -229.19182      210823.14     -68.209939     -492.11113     -127.25439      214.07059      185.64926     -103.10116    
      1000  -12717.627      62.11386      -12655.513      300.52141     -211.08486      210906.11     -161.36639     -547.52232      75.63412       43.254686      212.61055     -113.64041    
      1001  -12718.549      63.056115     -12655.493      305.08026     -216.18105      210912.03     -178.55357     -566.46542      96.475839      26.714503      209.97176     -109.94238    
Loop time of 96.4697 on 4 procs for 1000 steps with 1600 atoms

Performance: 0.896 ns/day, 26.797 hours/ns, 10.366 timesteps/s, 16.586 katom-step/s
99.9% CPU use with 4 MPI tasks x no OpenMP threads

MPI task timing breakdown:
Section |  min time  |  avg time  |  max time  |%varavg| %total
---------------------------------------------------------------
Pair    | 0.0016205  | 27.675     | 94.115     | 740.4 | 28.69
Bond    | 0.00012148 | 0.00049202 | 0.00092137 |   0.0 |  0.00
Neigh   | 0.00057864 | 0.18066    | 0.61007    |  59.3 |  0.19
Comm    | 0.014478   | 19.587     | 78.184     | 764.4 | 20.30
Output  | 1.4039     | 1.4566     | 1.4889     |   2.9 |  1.51
Modify  | 0.16609    | 47.566     | 94.961     | 687.1 | 49.31
Other   |            | 0.003848   |            |       |  0.00

Nlocal:            400 ave        1237 max           0 min
Histogram: 2 0 1 0 0 0 0 0 0 1
Nghost:         1223.5 ave        2884 max           0 min
Histogram: 2 0 0 0 0 0 1 0 0 1
Neighs:              0 ave           0 max           0 min
Histogram: 4 0 0 0 0 0 0 0 0 0
FullNghs:      72853.5 ave      225821 max           0 min
Histogram: 2 0 1 0 0 0 0 0 0 1

Total # of neighbors = 291414
Ave neighs/atom = 182.13375
Ave special neighs/atom = 0
Neighbor list builds = 100
Dangerous builds not checked

Total wall time: 0:01:36
