# LAMMPS data file written by OVITO Basic 3.7.10
8244 atoms
9 atom types
0.0 26.4 xlo xhi
0.0 22.863 ylo yhi
0.0 137.2598 zlo zhi

Masses

1 58.71
2 14.007
3 12.0
4 1.008
5 39.0983
6 15.9994
7 1.008
8 15.9994  # O
9 1.008  # H

Atoms  # atomic

1 1 3.28 17.13 1.75
2 1 9.88 5.7 1.75
3 1 3.28 5.71 1.75
4 1 9.88 17.14 1.75
5 1 6.58 22.85 1.75
6 1 13.18 11.42 1.75
7 2 5.07 16.74 1.75
8 2 11.67 5.3 1.75
9 2 1.5 17.53 1.75
10 2 8.1 6.09 1.75
11 2 2.73 7.45 1.75
12 2 9.33 18.88 1.75
13 2 3.83 3.96 1.75
14 2 10.43 15.39 1.75
15 2 5.35 21.5 1.75
16 2 11.95 10.07 1.75
17 2 1.21 12.76 1.75
18 2 7.81 1.33 1.75
19 2 5.07 6.1 1.75
20 2 11.67 17.53 1.75
21 2 1.5 5.31 1.75
22 2 8.1 16.74 1.75
23 2 2.73 15.39 1.75
24 2 9.33 3.96 1.75
25 2 3.83 18.87 1.75
26 2 10.43 7.44 1.75
27 2 5.35 1.33 1.75
28 2 11.95 12.76 1.75
29 2 1.21 10.07 1.75
30 2 7.81 21.5 1.75
31 3 5.87 17.8 1.75
32 3 12.47 6.37 1.75
33 3 0.69 16.46 1.75
34 3 7.29 5.03 1.75
35 3 1.4 7.61 1.75
36 3 8.0 19.04 1.75
37 3 5.16 3.8 1.75
38 3 11.76 15.23 1.75
39 3 5.87 20.27 1.75
40 3 12.47 8.84 1.75
41 3 0.69 14.0 1.75
42 3 7.29 2.57 1.75
43 3 5.87 5.03 1.75
44 3 12.47 16.46 1.75
45 3 0.69 6.37 1.75
46 3 7.29 17.81 1.75
47 3 1.4 15.22 1.75
48 3 8.0 3.79 1.75
49 3 5.16 19.04 1.75
50 3 11.76 7.61 1.75
51 3 5.87 2.57 1.75
52 3 12.47 14.0 1.75
53 3 0.69 8.84 1.75
54 3 7.29 20.27 1.75
55 4 3.25 3.14 1.75
56 4 9.85 14.57 1.75
57 4 5.49 7.02 1.75
58 4 12.09 18.45 1.75
59 4 1.08 18.45 1.75
60 4 7.68 7.01 1.75
61 4 3.32 14.56 1.75
62 4 9.92 3.13 1.75
63 4 4.34 1.24 1.75
64 4 10.94 12.68 1.75
65 4 2.22 12.67 1.75
66 4 8.82 1.24 1.75
67 4 4.34 21.59 1.75
68 4 10.94 10.16 1.75
69 4 2.22 10.17 1.75
70 4 8.82 21.6 1.75
71 4 3.25 19.7 1.75
72 4 9.85 8.27 1.75
73 4 5.49 15.82 1.75
74 4 12.09 4.39 1.75
75 4 3.32 8.27 1.75
76 4 9.92 19.71 1.75
77 4 1.08 4.39 1.75
78 4 7.68 15.82 1.75
79 1 3.28 17.13 5.24
80 1 9.88 5.7 5.24
81 1 3.28 5.71 5.24
82 1 9.88 17.14 5.24
83 1 6.58 22.85 5.24
84 1 13.18 11.42 5.24
85 2 5.07 16.74 5.24
86 2 11.67 5.3 5.24
87 2 1.5 17.53 5.24
88 2 8.1 6.09 5.24
89 2 2.73 7.45 5.24
90 2 9.33 18.88 5.24
91 2 3.83 3.96 5.24
92 2 10.43 15.39 5.24
93 2 5.35 21.5 5.24
94 2 11.95 10.07 5.24
95 2 1.21 12.76 5.24
96 2 7.81 1.33 5.24
97 2 5.07 6.1 5.24
98 2 11.67 17.53 5.24
99 2 1.5 5.31 5.24
100 2 8.1 16.74 5.24
101 2 2.73 15.39 5.24
102 2 9.33 3.96 5.24
103 2 3.83 18.87 5.24
104 2 10.43 7.44 5.24
105 2 5.35 1.33 5.24
106 2 11.95 12.76 5.24
107 2 1.21 10.07 5.24
108 2 7.81 21.5 5.24
109 3 5.87 17.8 5.24
110 3 12.47 6.37 5.24
111 3 0.69 16.46 5.24
112 3 7.29 5.03 5.24
113 3 1.4 7.61 5.24
114 3 8.0 19.04 5.24
115 3 5.16 3.8 5.24
116 3 11.76 15.23 5.24
117 3 5.87 20.27 5.24
118 3 12.47 8.84 5.24
119 3 0.69 14.0 5.24
120 3 7.29 2.57 5.24
121 3 5.87 5.03 5.24
122 3 12.47 16.46 5.24
123 3 0.69 6.37 5.24
124 3 7.29 17.81 5.24
125 3 1.4 15.22 5.24
126 3 8.0 3.79 5.24
127 3 5.16 19.04 5.24
128 3 11.76 7.61 5.24
129 3 5.87 2.57 5.24
130 3 12.47 14.0 5.24
131 3 0.69 8.84 5.24
132 3 7.29 20.27 5.24
133 4 3.25 3.14 5.24
134 4 9.85 14.57 5.24
135 4 5.49 7.02 5.24
136 4 12.09 18.45 5.24
137 4 1.08 18.45 5.24
138 4 7.68 7.01 5.24
139 4 3.32 14.56 5.24
140 4 9.92 3.13 5.24
141 4 4.34 1.24 5.24
142 4 10.94 12.68 5.24
143 4 2.22 12.67 5.24
144 4 8.82 1.24 5.24
145 4 4.34 21.59 5.24
146 4 10.94 10.16 5.24
147 4 2.22 10.17 5.24
148 4 8.82 21.6 5.24
149 4 3.25 19.7 5.24
150 4 9.85 8.27 5.24
151 4 5.49 15.82 5.24
152 4 12.09 4.39 5.24
153 4 3.32 8.27 5.24
154 4 9.92 19.71 5.24
155 4 1.08 4.39 5.24
156 4 7.68 15.82 5.24
157 1 3.28 17.13 8.74
158 1 9.88 5.7 8.74
159 1 3.28 5.71 8.74
160 1 9.88 17.14 8.74
161 1 6.58 22.85 8.74
162 1 13.18 11.42 8.74
163 2 5.07 16.74 8.74
164 2 11.67 5.3 8.74
165 2 1.5 17.53 8.74
166 2 8.1 6.09 8.74
167 2 2.73 7.45 8.74
168 2 9.33 18.88 8.74
169 2 3.83 3.96 8.74
170 2 10.43 15.39 8.74
171 2 5.35 21.5 8.74
172 2 11.95 10.07 8.74
173 2 1.21 12.76 8.74
174 2 7.81 1.33 8.74
175 2 5.07 6.1 8.74
176 2 11.67 17.53 8.74
177 2 1.5 5.31 8.74
178 2 8.1 16.74 8.74
179 2 2.73 15.39 8.74
180 2 9.33 3.96 8.74
181 2 3.83 18.87 8.74
182 2 10.43 7.44 8.74
183 2 5.35 1.33 8.74
184 2 11.95 12.76 8.74
185 2 1.21 10.07 8.74
186 2 7.81 21.5 8.74
187 3 5.87 17.8 8.74
188 3 12.47 6.37 8.74
189 3 0.69 16.46 8.74
190 3 7.29 5.03 8.74
191 3 1.4 7.61 8.74
192 3 8.0 19.04 8.74
193 3 5.16 3.8 8.74
194 3 11.76 15.23 8.74
195 3 5.87 20.27 8.74
196 3 12.47 8.84 8.74
197 3 0.69 14.0 8.74
198 3 7.29 2.57 8.74
199 3 5.87 5.03 8.74
200 3 12.47 16.46 8.74
201 3 0.69 6.37 8.74
202 3 7.29 17.81 8.74
203 3 1.4 15.22 8.74
204 3 8.0 3.79 8.74
205 3 5.16 19.04 8.74
206 3 11.76 7.61 8.74
207 3 5.87 2.57 8.74
208 3 12.47 14.0 8.74
209 3 0.69 8.84 8.74
210 3 7.29 20.27 8.74
211 4 3.25 3.14 8.74
212 4 9.85 14.57 8.74
213 4 5.49 7.02 8.74
214 4 12.09 18.45 8.74
215 4 1.08 18.45 8.74
216 4 7.68 7.01 8.74
217 4 3.32 14.56 8.74
218 4 9.92 3.13 8.74
219 4 4.34 1.24 8.74
220 4 10.94 12.68 8.74
221 4 2.22 12.67 8.74
222 4 8.82 1.24 8.74
223 4 4.34 21.59 8.74
224 4 10.94 10.16 8.74
225 4 2.22 10.17 8.74
226 4 8.82 21.6 8.74
227 4 3.25 19.7 8.74
228 4 9.85 8.27 8.74
229 4 5.49 15.82 8.74
230 4 12.09 4.39 8.74
231 4 3.32 8.27 8.74
232 4 9.92 19.71 8.74
233 4 1.08 4.39 8.74
234 4 7.68 15.82 8.74
235 1 3.28 17.13 22.73
236 1 9.88 5.7 22.73
237 1 3.28 5.71 22.73
238 1 9.88 17.14 22.73
239 1 6.58 22.85 22.73
240 1 13.18 11.42 22.73
241 2 5.07 16.74 22.73
242 2 11.67 5.3 22.73
243 2 1.5 17.53 22.73
244 2 8.1 6.09 22.73
245 2 2.73 7.45 22.73
246 2 9.33 18.88 22.73
247 2 3.83 3.96 22.73
248 2 10.43 15.39 22.73
249 2 5.35 21.5 22.73
250 2 11.95 10.07 22.73
251 2 1.21 12.76 22.73
252 2 7.81 1.33 22.73
253 2 5.07 6.1 22.73
254 2 11.67 17.53 22.73
255 2 1.5 5.31 22.73
256 2 8.1 16.74 22.73
257 2 2.73 15.39 22.73
258 2 9.33 3.96 22.73
259 2 3.83 18.87 22.73
260 2 10.43 7.44 22.73
261 2 5.35 1.33 22.73
262 2 11.95 12.76 22.73
263 2 1.21 10.07 22.73
264 2 7.81 21.5 22.73
265 3 5.87 17.8 22.73
266 3 12.47 6.37 22.73
267 3 0.69 16.46 22.73
268 3 7.29 5.03 22.73
269 3 1.4 7.61 22.73
270 3 8.0 19.04 22.73
271 3 5.16 3.8 22.73
272 3 11.76 15.23 22.73
273 3 5.87 20.27 22.73
274 3 12.47 8.84 22.73
275 3 0.69 14.0 22.73
276 3 7.29 2.57 22.73
277 3 5.87 5.03 22.73
278 3 12.47 16.46 22.73
279 3 0.69 6.37 22.73
280 3 7.29 17.81 22.73
281 3 1.4 15.22 22.73
282 3 8.0 3.79 22.73
283 3 5.16 19.04 22.73
284 3 11.76 7.61 22.73
285 3 5.87 2.57 22.73
286 3 12.47 14.0 22.73
287 3 0.69 8.84 22.73
288 3 7.29 20.27 22.73
289 4 3.25 3.14 22.73
290 4 9.85 14.57 22.73
291 4 5.49 7.02 22.73
292 4 12.09 18.45 22.73
293 4 1.08 18.45 22.73
294 4 7.68 7.01 22.73
295 4 3.32 14.56 22.73
296 4 9.92 3.13 22.73
297 4 4.34 1.24 22.73
298 4 10.94 12.68 22.73
299 4 2.22 12.67 22.73
300 4 8.82 1.24 22.73
301 4 4.34 21.59 22.73
302 4 10.94 10.16 22.73
303 4 2.22 10.17 22.73
304 4 8.82 21.6 22.73
305 4 3.25 19.7 22.73
306 4 9.85 8.27 22.73
307 4 5.49 15.82 22.73
308 4 12.09 4.39 22.73
309 4 3.32 8.27 22.73
310 4 9.92 19.71 22.73
311 4 1.08 4.39 22.73
312 4 7.68 15.82 22.73
313 1 3.28 17.13 26.23
314 1 9.88 5.7 26.23
315 1 3.28 5.71 26.23
316 1 9.88 17.14 26.23
317 1 6.58 22.85 26.23
318 1 13.18 11.42 26.23
319 2 5.07 16.74 26.23
320 2 11.67 5.3 26.23
321 2 1.5 17.53 26.23
322 2 8.1 6.09 26.23
323 2 2.73 7.45 26.23
324 2 9.33 18.88 26.23
325 2 3.83 3.96 26.23
326 2 10.43 15.39 26.23
327 2 5.35 21.5 26.23
328 2 11.95 10.07 26.23
329 2 1.21 12.76 26.23
330 2 7.81 1.33 26.23
331 2 5.07 6.1 26.23
332 2 11.67 17.53 26.23
333 2 1.5 5.31 26.23
334 2 8.1 16.74 26.23
335 2 2.73 15.39 26.23
336 2 9.33 3.96 26.23
337 2 3.83 18.87 26.23
338 2 10.43 7.44 26.23
339 2 5.35 1.33 26.23
340 2 11.95 12.76 26.23
341 2 1.21 10.07 26.23
342 2 7.81 21.5 26.23
343 3 5.87 17.8 26.23
344 3 12.47 6.37 26.23
345 3 0.69 16.46 26.23
346 3 7.29 5.03 26.23
347 3 1.4 7.61 26.23
348 3 8.0 19.04 26.23
349 3 5.16 3.8 26.23
350 3 11.76 15.23 26.23
351 3 5.87 20.27 26.23
352 3 12.47 8.84 26.23
353 3 0.69 14.0 26.23
354 3 7.29 2.57 26.23
355 3 5.87 5.03 26.23
356 3 12.47 16.46 26.23
357 3 0.69 6.37 26.23
358 3 7.29 17.81 26.23
359 3 1.4 15.22 26.23
360 3 8.0 3.79 26.23
361 3 5.16 19.04 26.23
362 3 11.76 7.61 26.23
363 3 5.87 2.57 26.23
364 3 12.47 14.0 26.23
365 3 0.69 8.84 26.23
366 3 7.29 20.27 26.23
367 4 3.25 3.14 26.23
368 4 9.85 14.57 26.23
369 4 5.49 7.02 26.23
370 4 12.09 18.45 26.23
371 4 1.08 18.45 26.23
372 4 7.68 7.01 26.23
373 4 3.32 14.56 26.23
374 4 9.92 3.13 26.23
375 4 4.34 1.24 26.23
376 4 10.94 12.68 26.23
377 4 2.22 12.67 26.23
378 4 8.82 1.24 26.23
379 4 4.34 21.59 26.23
380 4 10.94 10.16 26.23
381 4 2.22 10.17 26.23
382 4 8.82 21.6 26.23
383 4 3.25 19.7 26.23
384 4 9.85 8.27 26.23
385 4 5.49 15.82 26.23
386 4 12.09 4.39 26.23
387 4 3.32 8.27 26.23
388 4 9.92 19.71 26.23
389 4 1.08 4.39 26.23
390 4 7.68 15.82 26.23
391 1 3.28 17.13 29.72
392 1 9.88 5.7 29.72
393 1 3.28 5.71 29.72
394 1 9.88 17.14 29.72
395 1 6.58 22.85 29.72
396 1 13.18 11.42 29.72
397 2 5.07 16.74 29.72
398 2 11.67 5.3 29.72
399 2 1.5 17.53 29.72
400 2 8.1 6.09 29.72
401 2 2.73 7.45 29.72
402 2 9.33 18.88 29.72
403 2 3.83 3.96 29.72
404 2 10.43 15.39 29.72
405 2 5.35 21.5 29.72
406 2 11.95 10.07 29.72
407 2 1.21 12.76 29.72
408 2 7.81 1.33 29.72
409 2 5.07 6.1 29.72
410 2 11.67 17.53 29.72
411 2 1.5 5.31 29.72
412 2 8.1 16.74 29.72
413 2 2.73 15.39 29.72
414 2 9.33 3.96 29.72
415 2 3.83 18.87 29.72
416 2 10.43 7.44 29.72
417 2 5.35 1.33 29.72
418 2 11.95 12.76 29.72
419 2 1.21 10.07 29.72
420 2 7.81 21.5 29.72
421 3 5.87 17.8 29.72
422 3 12.47 6.37 29.72
423 3 0.69 16.46 29.72
424 3 7.29 5.03 29.72
425 3 1.4 7.61 29.72
426 3 8.0 19.04 29.72
427 3 5.16 3.8 29.72
428 3 11.76 15.23 29.72
429 3 5.87 20.27 29.72
430 3 12.47 8.84 29.72
431 3 0.69 14.0 29.72
432 3 7.29 2.57 29.72
433 3 5.87 5.03 29.72
434 3 12.47 16.46 29.72
435 3 0.69 6.37 29.72
436 3 7.29 17.81 29.72
437 3 1.4 15.22 29.72
438 3 8.0 3.79 29.72
439 3 5.16 19.04 29.72
440 3 11.76 7.61 29.72
441 3 5.87 2.57 29.72
442 3 12.47 14.0 29.72
443 3 0.69 8.84 29.72
444 3 7.29 20.27 29.72
445 4 3.25 3.14 29.72
446 4 9.85 14.57 29.72
447 4 5.49 7.02 29.72
448 4 12.09 18.45 29.72
449 4 1.08 18.45 29.72
450 4 7.68 7.01 29.72
451 4 3.32 14.56 29.72
452 4 9.92 3.13 29.72
453 4 4.34 1.24 29.72
454 4 10.94 12.68 29.72
455 4 2.22 12.67 29.72
456 4 8.82 1.24 29.72
457 4 4.34 21.59 29.72
458 4 10.94 10.16 29.72
459 4 2.22 10.17 29.72
460 4 8.82 21.6 29.72
461 4 3.25 19.7 29.72
462 4 9.85 8.27 29.72
463 4 5.49 15.82 29.72
464 4 12.09 4.39 29.72
465 4 3.32 8.27 29.72
466 4 9.92 19.71 29.72
467 4 1.08 4.39 29.72
468 4 7.68 15.82 29.72
469 1 3.28 17.13 12.24
470 1 9.88 5.7 12.24
471 1 3.28 5.71 12.24
472 1 9.88 17.14 12.24
473 1 6.58 22.85 12.24
474 1 13.18 11.42 12.24
475 2 5.07 16.74 12.24
476 2 11.67 5.3 12.24
477 2 1.5 17.53 12.24
478 2 8.1 6.09 12.24
479 2 2.73 7.45 12.24
480 2 9.33 18.88 12.24
481 2 3.83 3.96 12.24
482 2 10.43 15.39 12.24
483 2 5.35 21.5 12.24
484 2 11.95 10.07 12.24
485 2 1.21 12.76 12.24
486 2 7.81 1.33 12.24
487 2 5.07 6.1 12.24
488 2 11.67 17.53 12.24
489 2 1.5 5.31 12.24
490 2 8.1 16.74 12.24
491 2 2.73 15.39 12.24
492 2 9.33 3.96 12.24
493 2 3.83 18.87 12.24
494 2 10.43 7.44 12.24
495 2 5.35 1.33 12.24
496 2 11.95 12.76 12.24
497 2 1.21 10.07 12.24
498 2 7.81 21.5 12.24
499 3 5.87 17.8 12.24
500 3 12.47 6.37 12.24
501 3 0.69 16.46 12.24
502 3 7.29 5.03 12.24
503 3 1.4 7.61 12.24
504 3 8.0 19.04 12.24
505 3 5.16 3.8 12.24
506 3 11.76 15.23 12.24
507 3 5.87 20.27 12.24
508 3 12.47 8.84 12.24
509 3 0.69 14.0 12.24
510 3 7.29 2.57 12.24
511 3 5.87 5.03 12.24
512 3 12.47 16.46 12.24
513 3 0.69 6.37 12.24
514 3 7.29 17.81 12.24
515 3 1.4 15.22 12.24
516 3 8.0 3.79 12.24
517 3 5.16 19.04 12.24
518 3 11.76 7.61 12.24
519 3 5.87 2.57 12.24
520 3 12.47 14.0 12.24
521 3 0.69 8.84 12.24
522 3 7.29 20.27 12.24
523 4 3.25 3.14 12.24
524 4 9.85 14.57 12.24
525 4 5.49 7.02 12.24
526 4 12.09 18.45 12.24
527 4 1.08 18.45 12.24
528 4 7.68 7.01 12.24
529 4 3.32 14.56 12.24
530 4 9.92 3.13 12.24
531 4 4.34 1.24 12.24
532 4 10.94 12.68 12.24
533 4 2.22 12.67 12.24
534 4 8.82 1.24 12.24
535 4 4.34 21.59 12.24
536 4 10.94 10.16 12.24
537 4 2.22 10.17 12.24
538 4 8.82 21.6 12.24
539 4 3.25 19.7 12.24
540 4 9.85 8.27 12.24
541 4 5.49 15.82 12.24
542 4 12.09 4.39 12.24
543 4 3.32 8.27 12.24
544 4 9.92 19.71 12.24
545 4 1.08 4.39 12.24
546 4 7.68 15.82 12.24
547 1 3.28 17.13 15.74
548 1 9.88 5.7 15.74
549 1 3.28 5.71 15.74
550 1 9.88 17.14 15.74
551 1 6.58 22.85 15.74
552 1 13.18 11.42 15.74
553 2 5.07 16.74 15.74
554 2 11.67 5.3 15.74
555 2 1.5 17.53 15.74
556 2 8.1 6.09 15.74
557 2 2.73 7.45 15.74
558 2 9.33 18.88 15.74
559 2 3.83 3.96 15.74
560 2 10.43 15.39 15.74
561 2 5.35 21.5 15.74
562 2 11.95 10.07 15.74
563 2 1.21 12.76 15.74
564 2 7.81 1.33 15.74
565 2 5.07 6.1 15.74
566 2 11.67 17.53 15.74
567 2 1.5 5.31 15.74
568 2 8.1 16.74 15.74
569 2 2.73 15.39 15.74
570 2 9.33 3.96 15.74
571 2 3.83 18.87 15.74
572 2 10.43 7.44 15.74
573 2 5.35 1.33 15.74
574 2 11.95 12.76 15.74
575 2 1.21 10.07 15.74
576 2 7.81 21.5 15.74
577 3 5.87 17.8 15.74
578 3 12.47 6.37 15.74
579 3 0.69 16.46 15.74
580 3 7.29 5.03 15.74
581 3 1.4 7.61 15.74
582 3 8.0 19.04 15.74
583 3 5.16 3.8 15.74
584 3 11.76 15.23 15.74
585 3 5.87 20.27 15.74
586 3 12.47 8.84 15.74
587 3 0.69 14.0 15.74
588 3 7.29 2.57 15.74
589 3 5.87 5.03 15.74
590 3 12.47 16.46 15.74
591 3 0.69 6.37 15.74
592 3 7.29 17.81 15.74
593 3 1.4 15.22 15.74
594 3 8.0 3.79 15.74
595 3 5.16 19.04 15.74
596 3 11.76 7.61 15.74
597 3 5.87 2.57 15.74
598 3 12.47 14.0 15.74
599 3 0.69 8.84 15.74
600 3 7.29 20.27 15.74
601 4 3.25 3.14 15.74
602 4 9.85 14.57 15.74
603 4 5.49 7.02 15.74
604 4 12.09 18.45 15.74
605 4 1.08 18.45 15.74
606 4 7.68 7.01 15.74
607 4 3.32 14.56 15.74
608 4 9.92 3.13 15.74
609 4 4.34 1.24 15.74
610 4 10.94 12.68 15.74
611 4 2.22 12.67 15.74
612 4 8.82 1.24 15.74
613 4 4.34 21.59 15.74
614 4 10.94 10.16 15.74
615 4 2.22 10.17 15.74
616 4 8.82 21.6 15.74
617 4 3.25 19.7 15.74
618 4 9.85 8.27 15.74
619 4 5.49 15.82 15.74
620 4 12.09 4.39 15.74
621 4 3.32 8.27 15.74
622 4 9.92 19.71 15.74
623 4 1.08 4.39 15.74
624 4 7.68 15.82 15.74
625 1 3.28 17.13 19.23
626 1 9.88 5.7 19.23
627 1 3.28 5.71 19.23
628 1 9.88 17.14 19.23
629 1 6.58 22.85 19.23
630 1 13.18 11.42 19.23
631 2 5.07 16.74 19.23
632 2 11.67 5.3 19.23
633 2 1.5 17.53 19.23
634 2 8.1 6.09 19.23
635 2 2.73 7.45 19.23
636 2 9.33 18.88 19.23
637 2 3.83 3.96 19.23
638 2 10.43 15.39 19.23
639 2 5.35 21.5 19.23
640 2 11.95 10.07 19.23
641 2 1.21 12.76 19.23
642 2 7.81 1.33 19.23
643 2 5.07 6.1 19.23
644 2 11.67 17.53 19.23
645 2 1.5 5.31 19.23
646 2 8.1 16.74 19.23
647 2 2.73 15.39 19.23
648 2 9.33 3.96 19.23
649 2 3.83 18.87 19.23
650 2 10.43 7.44 19.23
651 2 5.35 1.33 19.23
652 2 11.95 12.76 19.23
653 2 1.21 10.07 19.23
654 2 7.81 21.5 19.23
655 3 5.87 17.8 19.23
656 3 12.47 6.37 19.23
657 3 0.69 16.46 19.23
658 3 7.29 5.03 19.23
659 3 1.4 7.61 19.23
660 3 8.0 19.04 19.23
661 3 5.16 3.8 19.23
662 3 11.76 15.23 19.23
663 3 5.87 20.27 19.23
664 3 12.47 8.84 19.23
665 3 0.69 14.0 19.23
666 3 7.29 2.57 19.23
667 3 5.87 5.03 19.23
668 3 12.47 16.46 19.23
669 3 0.69 6.37 19.23
670 3 7.29 17.81 19.23
671 3 1.4 15.22 19.23
672 3 8.0 3.79 19.23
673 3 5.16 19.04 19.23
674 3 11.76 7.61 19.23
675 3 5.87 2.57 19.23
676 3 12.47 14.0 19.23
677 3 0.69 8.84 19.23
678 3 7.29 20.27 19.23
679 4 3.25 3.14 19.23
680 4 9.85 14.57 19.23
681 4 5.49 7.02 19.23
682 4 12.09 18.45 19.23
683 4 1.08 18.45 19.23
684 4 7.68 7.01 19.23
685 4 3.32 14.56 19.23
686 4 9.92 3.13 19.23
687 4 4.34 1.24 19.23
688 4 10.94 12.68 19.23
689 4 2.22 12.67 19.23
690 4 8.82 1.24 19.23
691 4 4.34 21.59 19.23
692 4 10.94 10.16 19.23
693 4 2.22 10.17 19.23
694 4 8.82 21.6 19.23
695 4 3.25 19.7 19.23
696 4 9.85 8.27 19.23
697 4 5.49 15.82 19.23
698 4 12.09 4.39 19.23
699 4 3.32 8.27 19.23
700 4 9.92 19.71 19.23
701 4 1.08 4.39 19.23
702 4 7.68 15.82 19.23
703 1 16.48 17.13 1.75
704 1 23.08 5.7 1.75
705 1 16.48 5.71 1.75
706 1 23.08 17.14 1.75
707 1 19.78 22.85 1.75
708 1 26.38 11.42 1.75
709 2 18.27 16.74 1.75
710 2 24.87 5.3 1.75
711 2 14.7 17.53 1.75
712 2 21.3 6.09 1.75
713 2 15.93 7.45 1.75
714 2 22.53 18.88 1.75
715 2 17.03 3.96 1.75
716 2 23.63 15.39 1.75
717 2 18.55 21.5 1.75
718 2 25.15 10.07 1.75
719 2 14.41 12.76 1.75
720 2 21.01 1.33 1.75
721 2 18.27 6.1 1.75
722 2 24.87 17.53 1.75
723 2 14.7 5.31 1.75
724 2 21.3 16.74 1.75
725 2 15.93 15.39 1.75
726 2 22.53 3.96 1.75
727 2 17.03 18.87 1.75
728 2 23.63 7.44 1.75
729 2 18.55 1.33 1.75
730 2 25.15 12.76 1.75
731 2 14.41 10.07 1.75
732 2 21.01 21.5 1.75
733 3 19.07 17.8 1.75
734 3 25.67 6.37 1.75
735 3 13.89 16.46 1.75
736 3 20.49 5.03 1.75
737 3 14.6 7.61 1.75
738 3 21.2 19.04 1.75
739 3 18.36 3.8 1.75
740 3 24.96 15.23 1.75
741 3 19.07 20.27 1.75
742 3 25.67 8.84 1.75
743 3 13.89 14.0 1.75
744 3 20.49 2.57 1.75
745 3 19.07 5.03 1.75
746 3 25.67 16.46 1.75
747 3 13.89 6.37 1.75
748 3 20.49 17.81 1.75
749 3 14.6 15.22 1.75
750 3 21.2 3.79 1.75
751 3 18.36 19.04 1.75
752 3 24.96 7.61 1.75
753 3 19.07 2.57 1.75
754 3 25.67 14.0 1.75
755 3 13.89 8.84 1.75
756 3 20.49 20.27 1.75
757 4 16.45 3.14 1.75
758 4 23.05 14.57 1.75
759 4 18.69 7.02 1.75
760 4 25.29 18.45 1.75
761 4 14.28 18.45 1.75
762 4 20.88 7.01 1.75
763 4 16.52 14.56 1.75
764 4 23.12 3.13 1.75
765 4 17.54 1.24 1.75
766 4 24.14 12.68 1.75
767 4 15.42 12.67 1.75
768 4 22.02 1.24 1.75
769 4 17.54 21.59 1.75
770 4 24.14 10.16 1.75
771 4 15.42 10.17 1.75
772 4 22.02 21.6 1.75
773 4 16.45 19.7 1.75
774 4 23.05 8.27 1.75
775 4 18.69 15.82 1.75
776 4 25.29 4.39 1.75
777 4 16.52 8.27 1.75
778 4 23.12 19.71 1.75
779 4 14.28 4.39 1.75
780 4 20.88 15.82 1.75
781 1 16.48 17.13 5.24
782 1 23.08 5.7 5.24
783 1 16.48 5.71 5.24
784 1 23.08 17.14 5.24
785 1 19.78 22.85 5.24
786 1 26.38 11.42 5.24
787 2 18.27 16.74 5.24
788 2 24.87 5.3 5.24
789 2 14.7 17.53 5.24
790 2 21.3 6.09 5.24
791 2 15.93 7.45 5.24
792 2 22.53 18.88 5.24
793 2 17.03 3.96 5.24
794 2 23.63 15.39 5.24
795 2 18.55 21.5 5.24
796 2 25.15 10.07 5.24
797 2 14.41 12.76 5.24
798 2 21.01 1.33 5.24
799 2 18.27 6.1 5.24
800 2 24.87 17.53 5.24
801 2 14.7 5.31 5.24
802 2 21.3 16.74 5.24
803 2 15.93 15.39 5.24
804 2 22.53 3.96 5.24
805 2 17.03 18.87 5.24
806 2 23.63 7.44 5.24
807 2 18.55 1.33 5.24
808 2 25.15 12.76 5.24
809 2 14.41 10.07 5.24
810 2 21.01 21.5 5.24
811 3 19.07 17.8 5.24
812 3 25.67 6.37 5.24
813 3 13.89 16.46 5.24
814 3 20.49 5.03 5.24
815 3 14.6 7.61 5.24
816 3 21.2 19.04 5.24
817 3 18.36 3.8 5.24
818 3 24.96 15.23 5.24
819 3 19.07 20.27 5.24
820 3 25.67 8.84 5.24
821 3 13.89 14.0 5.24
822 3 20.49 2.57 5.24
823 3 19.07 5.03 5.24
824 3 25.67 16.46 5.24
825 3 13.89 6.37 5.24
826 3 20.49 17.81 5.24
827 3 14.6 15.22 5.24
828 3 21.2 3.79 5.24
829 3 18.36 19.04 5.24
830 3 24.96 7.61 5.24
831 3 19.07 2.57 5.24
832 3 25.67 14.0 5.24
833 3 13.89 8.84 5.24
834 3 20.49 20.27 5.24
835 4 16.45 3.14 5.24
836 4 23.05 14.57 5.24
837 4 18.69 7.02 5.24
838 4 25.29 18.45 5.24
839 4 14.28 18.45 5.24
840 4 20.88 7.01 5.24
841 4 16.52 14.56 5.24
842 4 23.12 3.13 5.24
843 4 17.54 1.24 5.24
844 4 24.14 12.68 5.24
845 4 15.42 12.67 5.24
846 4 22.02 1.24 5.24
847 4 17.54 21.59 5.24
848 4 24.14 10.16 5.24
849 4 15.42 10.17 5.24
850 4 22.02 21.6 5.24
851 4 16.45 19.7 5.24
852 4 23.05 8.27 5.24
853 4 18.69 15.82 5.24
854 4 25.29 4.39 5.24
855 4 16.52 8.27 5.24
856 4 23.12 19.71 5.24
857 4 14.28 4.39 5.24
858 4 20.88 15.82 5.24
859 1 16.48 17.13 8.74
860 1 23.08 5.7 8.74
861 1 16.48 5.71 8.74
862 1 23.08 17.14 8.74
863 1 19.78 22.85 8.74
864 1 26.38 11.42 8.74
865 2 18.27 16.74 8.74
866 2 24.87 5.3 8.74
867 2 14.7 17.53 8.74
868 2 21.3 6.09 8.74
869 2 15.93 7.45 8.74
870 2 22.53 18.88 8.74
871 2 17.03 3.96 8.74
872 2 23.63 15.39 8.74
873 2 18.55 21.5 8.74
874 2 25.15 10.07 8.74
875 2 14.41 12.76 8.74
876 2 21.01 1.33 8.74
877 2 18.27 6.1 8.74
878 2 24.87 17.53 8.74
879 2 14.7 5.31 8.74
880 2 21.3 16.74 8.74
881 2 15.93 15.39 8.74
882 2 22.53 3.96 8.74
883 2 17.03 18.87 8.74
884 2 23.63 7.44 8.74
885 2 18.55 1.33 8.74
886 2 25.15 12.76 8.74
887 2 14.41 10.07 8.74
888 2 21.01 21.5 8.74
889 3 19.07 17.8 8.74
890 3 25.67 6.37 8.74
891 3 13.89 16.46 8.74
892 3 20.49 5.03 8.74
893 3 14.6 7.61 8.74
894 3 21.2 19.04 8.74
895 3 18.36 3.8 8.74
896 3 24.96 15.23 8.74
897 3 19.07 20.27 8.74
898 3 25.67 8.84 8.74
899 3 13.89 14.0 8.74
900 3 20.49 2.57 8.74
901 3 19.07 5.03 8.74
902 3 25.67 16.46 8.74
903 3 13.89 6.37 8.74
904 3 20.49 17.81 8.74
905 3 14.6 15.22 8.74
906 3 21.2 3.79 8.74
907 3 18.36 19.04 8.74
908 3 24.96 7.61 8.74
909 3 19.07 2.57 8.74
910 3 25.67 14.0 8.74
911 3 13.89 8.84 8.74
912 3 20.49 20.27 8.74
913 4 16.45 3.14 8.74
914 4 23.05 14.57 8.74
915 4 18.69 7.02 8.74
916 4 25.29 18.45 8.74
917 4 14.28 18.45 8.74
918 4 20.88 7.01 8.74
919 4 16.52 14.56 8.74
920 4 23.12 3.13 8.74
921 4 17.54 1.24 8.74
922 4 24.14 12.68 8.74
923 4 15.42 12.67 8.74
924 4 22.02 1.24 8.74
925 4 17.54 21.59 8.74
926 4 24.14 10.16 8.74
927 4 15.42 10.17 8.74
928 4 22.02 21.6 8.74
929 4 16.45 19.7 8.74
930 4 23.05 8.27 8.74
931 4 18.69 15.82 8.74
932 4 25.29 4.39 8.74
933 4 16.52 8.27 8.74
934 4 23.12 19.71 8.74
935 4 14.28 4.39 8.74
936 4 20.88 15.82 8.74
937 1 16.48 17.13 22.73
938 1 23.08 5.7 22.73
939 1 16.48 5.71 22.73
940 1 23.08 17.14 22.73
941 1 19.78 22.85 22.73
942 1 26.38 11.42 22.73
943 2 18.27 16.74 22.73
944 2 24.87 5.3 22.73
945 2 14.7 17.53 22.73
946 2 21.3 6.09 22.73
947 2 15.93 7.45 22.73
948 2 22.53 18.88 22.73
949 2 17.03 3.96 22.73
950 2 23.63 15.39 22.73
951 2 18.55 21.5 22.73
952 2 25.15 10.07 22.73
953 2 14.41 12.76 22.73
954 2 21.01 1.33 22.73
955 2 18.27 6.1 22.73
956 2 24.87 17.53 22.73
957 2 14.7 5.31 22.73
958 2 21.3 16.74 22.73
959 2 15.93 15.39 22.73
960 2 22.53 3.96 22.73
961 2 17.03 18.87 22.73
962 2 23.63 7.44 22.73
963 2 18.55 1.33 22.73
964 2 25.15 12.76 22.73
965 2 14.41 10.07 22.73
966 2 21.01 21.5 22.73
967 3 19.07 17.8 22.73
968 3 25.67 6.37 22.73
969 3 13.89 16.46 22.73
970 3 20.49 5.03 22.73
971 3 14.6 7.61 22.73
972 3 21.2 19.04 22.73
973 3 18.36 3.8 22.73
974 3 24.96 15.23 22.73
975 3 19.07 20.27 22.73
976 3 25.67 8.84 22.73
977 3 13.89 14.0 22.73
978 3 20.49 2.57 22.73
979 3 19.07 5.03 22.73
980 3 25.67 16.46 22.73
981 3 13.89 6.37 22.73
982 3 20.49 17.81 22.73
983 3 14.6 15.22 22.73
984 3 21.2 3.79 22.73
985 3 18.36 19.04 22.73
986 3 24.96 7.61 22.73
987 3 19.07 2.57 22.73
988 3 25.67 14.0 22.73
989 3 13.89 8.84 22.73
990 3 20.49 20.27 22.73
991 4 16.45 3.14 22.73
992 4 23.05 14.57 22.73
993 4 18.69 7.02 22.73
994 4 25.29 18.45 22.73
995 4 14.28 18.45 22.73
996 4 20.88 7.01 22.73
997 4 16.52 14.56 22.73
998 4 23.12 3.13 22.73
999 4 17.54 1.24 22.73
1000 4 24.14 12.68 22.73
1001 4 15.42 12.67 22.73
1002 4 22.02 1.24 22.73
1003 4 17.54 21.59 22.73
1004 4 24.14 10.16 22.73
1005 4 15.42 10.17 22.73
1006 4 22.02 21.6 22.73
1007 4 16.45 19.7 22.73
1008 4 23.05 8.27 22.73
1009 4 18.69 15.82 22.73
1010 4 25.29 4.39 22.73
1011 4 16.52 8.27 22.73
1012 4 23.12 19.71 22.73
1013 4 14.28 4.39 22.73
1014 4 20.88 15.82 22.73
1015 1 16.48 17.13 26.23
1016 1 23.08 5.7 26.23
1017 1 16.48 5.71 26.23
1018 1 23.08 17.14 26.23
1019 1 19.78 22.85 26.23
1020 1 26.38 11.42 26.23
1021 2 18.27 16.74 26.23
1022 2 24.87 5.3 26.23
1023 2 14.7 17.53 26.23
1024 2 21.3 6.09 26.23
1025 2 15.93 7.45 26.23
1026 2 22.53 18.88 26.23
1027 2 17.03 3.96 26.23
1028 2 23.63 15.39 26.23
1029 2 18.55 21.5 26.23
1030 2 25.15 10.07 26.23
1031 2 14.41 12.76 26.23
1032 2 21.01 1.33 26.23
1033 2 18.27 6.1 26.23
1034 2 24.87 17.53 26.23
1035 2 14.7 5.31 26.23
1036 2 21.3 16.74 26.23
1037 2 15.93 15.39 26.23
1038 2 22.53 3.96 26.23
1039 2 17.03 18.87 26.23
1040 2 23.63 7.44 26.23
1041 2 18.55 1.33 26.23
1042 2 25.15 12.76 26.23
1043 2 14.41 10.07 26.23
1044 2 21.01 21.5 26.23
1045 3 19.07 17.8 26.23
1046 3 25.67 6.37 26.23
1047 3 13.89 16.46 26.23
1048 3 20.49 5.03 26.23
1049 3 14.6 7.61 26.23
1050 3 21.2 19.04 26.23
1051 3 18.36 3.8 26.23
1052 3 24.96 15.23 26.23
1053 3 19.07 20.27 26.23
1054 3 25.67 8.84 26.23
1055 3 13.89 14.0 26.23
1056 3 20.49 2.57 26.23
1057 3 19.07 5.03 26.23
1058 3 25.67 16.46 26.23
1059 3 13.89 6.37 26.23
1060 3 20.49 17.81 26.23
1061 3 14.6 15.22 26.23
1062 3 21.2 3.79 26.23
1063 3 18.36 19.04 26.23
1064 3 24.96 7.61 26.23
1065 3 19.07 2.57 26.23
1066 3 25.67 14.0 26.23
1067 3 13.89 8.84 26.23
1068 3 20.49 20.27 26.23
1069 4 16.45 3.14 26.23
1070 4 23.05 14.57 26.23
1071 4 18.69 7.02 26.23
1072 4 25.29 18.45 26.23
1073 4 14.28 18.45 26.23
1074 4 20.88 7.01 26.23
1075 4 16.52 14.56 26.23
1076 4 23.12 3.13 26.23
1077 4 17.54 1.24 26.23
1078 4 24.14 12.68 26.23
1079 4 15.42 12.67 26.23
1080 4 22.02 1.24 26.23
1081 4 17.54 21.59 26.23
1082 4 24.14 10.16 26.23
1083 4 15.42 10.17 26.23
1084 4 22.02 21.6 26.23
1085 4 16.45 19.7 26.23
1086 4 23.05 8.27 26.23
1087 4 18.69 15.82 26.23
1088 4 25.29 4.39 26.23
1089 4 16.52 8.27 26.23
1090 4 23.12 19.71 26.23
1091 4 14.28 4.39 26.23
1092 4 20.88 15.82 26.23
1093 1 16.48 17.13 29.72
1094 1 23.08 5.7 29.72
1095 1 16.48 5.71 29.72
1096 1 23.08 17.14 29.72
1097 1 19.78 22.85 29.72
1098 1 26.38 11.42 29.72
1099 2 18.27 16.74 29.72
1100 2 24.87 5.3 29.72
1101 2 14.7 17.53 29.72
1102 2 21.3 6.09 29.72
1103 2 15.93 7.45 29.72
1104 2 22.53 18.88 29.72
1105 2 17.03 3.96 29.72
1106 2 23.63 15.39 29.72
1107 2 18.55 21.5 29.72
1108 2 25.15 10.07 29.72
1109 2 14.41 12.76 29.72
1110 2 21.01 1.33 29.72
1111 2 18.27 6.1 29.72
1112 2 24.87 17.53 29.72
1113 2 14.7 5.31 29.72
1114 2 21.3 16.74 29.72
1115 2 15.93 15.39 29.72
1116 2 22.53 3.96 29.72
1117 2 17.03 18.87 29.72
1118 2 23.63 7.44 29.72
1119 2 18.55 1.33 29.72
1120 2 25.15 12.76 29.72
1121 2 14.41 10.07 29.72
1122 2 21.01 21.5 29.72
1123 3 19.07 17.8 29.72
1124 3 25.67 6.37 29.72
1125 3 13.89 16.46 29.72
1126 3 20.49 5.03 29.72
1127 3 14.6 7.61 29.72
1128 3 21.2 19.04 29.72
1129 3 18.36 3.8 29.72
1130 3 24.96 15.23 29.72
1131 3 19.07 20.27 29.72
1132 3 25.67 8.84 29.72
1133 3 13.89 14.0 29.72
1134 3 20.49 2.57 29.72
1135 3 19.07 5.03 29.72
1136 3 25.67 16.46 29.72
1137 3 13.89 6.37 29.72
1138 3 20.49 17.81 29.72
1139 3 14.6 15.22 29.72
1140 3 21.2 3.79 29.72
1141 3 18.36 19.04 29.72
1142 3 24.96 7.61 29.72
1143 3 19.07 2.57 29.72
1144 3 25.67 14.0 29.72
1145 3 13.89 8.84 29.72
1146 3 20.49 20.27 29.72
1147 4 16.45 3.14 29.72
1148 4 23.05 14.57 29.72
1149 4 18.69 7.02 29.72
1150 4 25.29 18.45 29.72
1151 4 14.28 18.45 29.72
1152 4 20.88 7.01 29.72
1153 4 16.52 14.56 29.72
1154 4 23.12 3.13 29.72
1155 4 17.54 1.24 29.72
1156 4 24.14 12.68 29.72
1157 4 15.42 12.67 29.72
1158 4 22.02 1.24 29.72
1159 4 17.54 21.59 29.72
1160 4 24.14 10.16 29.72
1161 4 15.42 10.17 29.72
1162 4 22.02 21.6 29.72
1163 4 16.45 19.7 29.72
1164 4 23.05 8.27 29.72
1165 4 18.69 15.82 29.72
1166 4 25.29 4.39 29.72
1167 4 16.52 8.27 29.72
1168 4 23.12 19.71 29.72
1169 4 14.28 4.39 29.72
1170 4 20.88 15.82 29.72
1171 1 16.48 17.13 12.24
1172 1 23.08 5.7 12.24
1173 1 16.48 5.71 12.24
1174 1 23.08 17.14 12.24
1175 1 19.78 22.85 12.24
1176 1 26.38 11.42 12.24
1177 2 18.27 16.74 12.24
1178 2 24.87 5.3 12.24
1179 2 14.7 17.53 12.24
1180 2 21.3 6.09 12.24
1181 2 15.93 7.45 12.24
1182 2 22.53 18.88 12.24
1183 2 17.03 3.96 12.24
1184 2 23.63 15.39 12.24
1185 2 18.55 21.5 12.24
1186 2 25.15 10.07 12.24
1187 2 14.41 12.76 12.24
1188 2 21.01 1.33 12.24
1189 2 18.27 6.1 12.24
1190 2 24.87 17.53 12.24
1191 2 14.7 5.31 12.24
1192 2 21.3 16.74 12.24
1193 2 15.93 15.39 12.24
1194 2 22.53 3.96 12.24
1195 2 17.03 18.87 12.24
1196 2 23.63 7.44 12.24
1197 2 18.55 1.33 12.24
1198 2 25.15 12.76 12.24
1199 2 14.41 10.07 12.24
1200 2 21.01 21.5 12.24
1201 3 19.07 17.8 12.24
1202 3 25.67 6.37 12.24
1203 3 13.89 16.46 12.24
1204 3 20.49 5.03 12.24
1205 3 14.6 7.61 12.24
1206 3 21.2 19.04 12.24
1207 3 18.36 3.8 12.24
1208 3 24.96 15.23 12.24
1209 3 19.07 20.27 12.24
1210 3 25.67 8.84 12.24
1211 3 13.89 14.0 12.24
1212 3 20.49 2.57 12.24
1213 3 19.07 5.03 12.24
1214 3 25.67 16.46 12.24
1215 3 13.89 6.37 12.24
1216 3 20.49 17.81 12.24
1217 3 14.6 15.22 12.24
1218 3 21.2 3.79 12.24
1219 3 18.36 19.04 12.24
1220 3 24.96 7.61 12.24
1221 3 19.07 2.57 12.24
1222 3 25.67 14.0 12.24
1223 3 13.89 8.84 12.24
1224 3 20.49 20.27 12.24
1225 4 16.45 3.14 12.24
1226 4 23.05 14.57 12.24
1227 4 18.69 7.02 12.24
1228 4 25.29 18.45 12.24
1229 4 14.28 18.45 12.24
1230 4 20.88 7.01 12.24
1231 4 16.52 14.56 12.24
1232 4 23.12 3.13 12.24
1233 4 17.54 1.24 12.24
1234 4 24.14 12.68 12.24
1235 4 15.42 12.67 12.24
1236 4 22.02 1.24 12.24
1237 4 17.54 21.59 12.24
1238 4 24.14 10.16 12.24
1239 4 15.42 10.17 12.24
1240 4 22.02 21.6 12.24
1241 4 16.45 19.7 12.24
1242 4 23.05 8.27 12.24
1243 4 18.69 15.82 12.24
1244 4 25.29 4.39 12.24
1245 4 16.52 8.27 12.24
1246 4 23.12 19.71 12.24
1247 4 14.28 4.39 12.24
1248 4 20.88 15.82 12.24
1249 1 16.48 17.13 15.74
1250 1 23.08 5.7 15.74
1251 1 16.48 5.71 15.74
1252 1 23.08 17.14 15.74
1253 1 19.78 22.85 15.74
1254 1 26.38 11.42 15.74
1255 2 18.27 16.74 15.74
1256 2 24.87 5.3 15.74
1257 2 14.7 17.53 15.74
1258 2 21.3 6.09 15.74
1259 2 15.93 7.45 15.74
1260 2 22.53 18.88 15.74
1261 2 17.03 3.96 15.74
1262 2 23.63 15.39 15.74
1263 2 18.55 21.5 15.74
1264 2 25.15 10.07 15.74
1265 2 14.41 12.76 15.74
1266 2 21.01 1.33 15.74
1267 2 18.27 6.1 15.74
1268 2 24.87 17.53 15.74
1269 2 14.7 5.31 15.74
1270 2 21.3 16.74 15.74
1271 2 15.93 15.39 15.74
1272 2 22.53 3.96 15.74
1273 2 17.03 18.87 15.74
1274 2 23.63 7.44 15.74
1275 2 18.55 1.33 15.74
1276 2 25.15 12.76 15.74
1277 2 14.41 10.07 15.74
1278 2 21.01 21.5 15.74
1279 3 19.07 17.8 15.74
1280 3 25.67 6.37 15.74
1281 3 13.89 16.46 15.74
1282 3 20.49 5.03 15.74
1283 3 14.6 7.61 15.74
1284 3 21.2 19.04 15.74
1285 3 18.36 3.8 15.74
1286 3 24.96 15.23 15.74
1287 3 19.07 20.27 15.74
1288 3 25.67 8.84 15.74
1289 3 13.89 14.0 15.74
1290 3 20.49 2.57 15.74
1291 3 19.07 5.03 15.74
1292 3 25.67 16.46 15.74
1293 3 13.89 6.37 15.74
1294 3 20.49 17.81 15.74
1295 3 14.6 15.22 15.74
1296 3 21.2 3.79 15.74
1297 3 18.36 19.04 15.74
1298 3 24.96 7.61 15.74
1299 3 19.07 2.57 15.74
1300 3 25.67 14.0 15.74
1301 3 13.89 8.84 15.74
1302 3 20.49 20.27 15.74
1303 4 16.45 3.14 15.74
1304 4 23.05 14.57 15.74
1305 4 18.69 7.02 15.74
1306 4 25.29 18.45 15.74
1307 4 14.28 18.45 15.74
1308 4 20.88 7.01 15.74
1309 4 16.52 14.56 15.74
1310 4 23.12 3.13 15.74