LAMMPS (21 Nov 2023 - Development - patch_21Nov2023-382-g3206608dc0-modified)
units           metal
boundary        p p p
atom_style      full

neigh_modify    every 10 delay 0 check no

variable    mW  equal 183.84
variable    mMo equal 95.94
variable    mSe equal 78.96

read_data   TMD.bilayer.data
Reading data file ...
  orthogonal box = (0 0 -50) to (74.820854 129.59352 50)
  2 by 2 by 2 MPI processor grid
  reading atoms ...
  6912 atoms
Finding 1-2 1-3 1-4 neighbors ...
  special bond factors lj:    0        0        0       
  special bond factors coul:  0        0        0       
     0 = max # of 1-2 neighbors
     0 = max # of 1-3 neighbors
     0 = max # of 1-4 neighbors
     1 = max # of special neighbors
  special bonds CPU = 0.001 seconds
  read_data CPU = 0.035 seconds
mass        1 ${mMo}
mass        1 95.94
mass        2 ${mSe}
mass        2 78.96
mass        3 ${mSe}
mass        3 78.96
mass        4 ${mW}
mass        4 183.84
mass        5 ${mSe}
mass        5 78.96
mass        6 ${mSe}
mass        6 78.96

pair_style  hybrid/overlay nep nep lj/cut 0.1
pair_coeff * * nep 1 nep.MoWSe Mo Se Se NULL NULL NULL
pair_coeff * * nep 2 nep.MoWSe NULL NULL NULL W Se Se
pair_coeff * * lj/cut 1 1


compute    1 all pe/atom
compute    pe all reduce sum c_1
dump 1 all custom 1 out.dump id type x y z fx fy fz
# run 1
velocity        all create 300 23456789
fix             1 all npt temp 300 300 0.1 iso 0 0 1
fix             2 all momentum 1 linear 1 1 1
timestep        0.001
thermo_style    custom step pe ke etotal temp press vol pxx pyy pzz pxy pxz pyz
thermo          10
dump 20 all custom 20 out.dump id type x y z fx fy fz
run             1000
Neighbor list info ...
  update: every = 10 steps, delay = 0 steps, check = no
  max neighbors/atom: 2000, page size: 100000
  master list distance cutoff = 7
  ghost atom cutoff = 7
  binsize = 3.5, bins = 22 38 29
  4 neighbor lists, perpetual/occasional/extra = 4 0 0
  (1) pair nep, perpetual, skip from (4)
      attributes: full, newton on
      pair build: skip
      stencil: none
      bin: none
  (2) pair nep, perpetual, skip from (4)
      attributes: full, newton on
      pair build: skip
      stencil: none
      bin: none
  (3) pair lj/cut, perpetual, half/full trim from (4)
      attributes: half, newton on, cut 2.1
      pair build: halffull/trim/newton
      stencil: none
      bin: none
  (4) neighbor class addition, perpetual
      attributes: full, newton on
      pair build: full/bin
      stencil: full/bin/3d
      bin: standard
Per MPI rank memory allocation (min/avg/max) = 7.822 | 7.928 | 8.034 Mbytes
   Step         PotEng         KinEng         TotEng          Temp          Press          Volume          Pxx            Pyy            Pzz            Pxy            Pxz            Pyz      
         0  -45268.286      267.99506     -45000.291      300            48210.87       969629.78      45336.767      45331.224      53964.618     -8.2667287      1.1304768     -2.3173023    
        10  -46213.977      660.18212     -45553.795      739.02346      36649.171      990470.2       35195.425      35192.848      39559.24       18.256978     -106.77803      34.50777     
        20  -47206.671      1142.846      -46063.825      1279.3288      19807.045      1017791.1      21124.701      21126.044      17170.389      22.16381      -170.45999      55.385959    
        30  -47407.89       1142.2879     -46265.602      1278.704       6217.3053      1037688.2      10786.214      10790.265     -2924.5634      12.912579     -199.02015      67.7089      
        40  -47069.47       753.23895     -46316.231      843.19348     -3101.224       1048753.9      4464.8942      4471.0701     -18239.636      1.9051246     -208.31061      75.223777    
        50  -46647.782      318.52864     -46329.254      356.56849     -8178.889       1050632.7      1573.2335      1578.7469     -27688.648     -4.832371      -198.05006      76.519561    
        60  -46456.584      89.69897      -46366.885      100.41115     -9514.8611      1044814.8      1312.4489      1319.145      -31176.177     -8.1608592     -187.06184      74.359931    
        70  -46575.447      150.48142     -46424.966      168.45246     -7664.8322      1034362.2      3050.7574      3060.6299     -29105.884     -10.509979     -182.13762      73.034754    
        80  -46895.889      435.17821     -46460.711      487.14877     -2924.1255      1024098.5      6451.6812      6462.8432     -21686.901     -14.981414     -164.78228      64.232916    
        90  -47218.414      749.43332     -46468.981      838.93336      3746.2254      1017895.6      10877.244      10884.989     -10523.556     -20.344147     -121.76932      45.871503    
       100  -47373.083      870.04896     -46503.034      973.95337      10909.224      1018281.1      15383.445      15379.771      1964.4565     -22.623793     -58.35042       20.202232    
       110  -47339.71       720.50435     -46619.205      806.5496       16652.459      1027415.3      18624.433      18602.449      12730.495     -16.079775      20.123487     -9.3810265    
       120  -47254.369      421.08366     -46833.285      471.37099      19451.788      1044186.1      19593.254      19556.308      19205.802     -0.8331702      99.183393     -37.332446    
       130  -47248.728      178.87175     -47069.856      200.23326      19314.527      1062830.8      18496.23       18457.789      20989.561      15.507211      162.41907     -57.966756    
       140  -47388.661      115.8017      -47272.86       129.63116      16492.622      1080584.4      15543.416      15517.491      18416.958      24.071544      199.40828     -69.083842    
       150  -47608.902      192.64303     -47416.259      215.64915      11787.368      1096574.7      11398.521      11389.6        12573.983      21.948308      208.25634     -71.733143    
       160  -47768.004      276.71849     -47491.285      309.76521      6520.1744      1109591.5      7172.3803      7175.4214      5212.7215      13.222744      194.73828     -68.324663    
       170  -47791.011      275.81194     -47515.199      308.7504       1788.6736      1118724.7      3679.4274      3688.2432     -2001.6499      3.4743114      165.8004      -60.743536    
       180  -47712.444      196.99587     -47515.448      220.52183     -1719.6916      1123514.8      1304.3646      1316.1593     -7779.5988     -4.3267721      126.23074     -49.634723    
       190  -47622.054      107.93827     -47514.115      120.82865     -3665.3545      1123972.3      148.35699      162.57841     -11306.999     -9.7423885      79.009616     -34.83317     
       200  -47591.25       70.547249     -47520.703      78.972257     -3978.3028      1120757        148.19952      164.22491     -12247.333     -13.283814      25.694158     -16.01667     
       210  -47633.573      103.32874     -47530.244      115.66863     -2793.1454      1115389.9      1134.3451      1149.4649     -10663.246     -15.017253     -32.272023      6.3000459    
       220  -47709.31       177.09614     -47532.214      198.2456      -449.24073      1110068.3      2824.6755      2832.8699     -7005.2676     -14.194602     -91.310486      29.961288    
       230  -47762.131      236.57741     -47525.554      264.83034      2491.5998      1106989.3      4806.6348      4799.9111     -2131.7464     -9.8389428     -144.90016      51.216163    
       240  -47763.882      240.77435     -47523.108      269.5285       5270.2911      1107849.8      6539.1089      6512.7695      2758.9948     -1.9008111     -184.86241      66.205262    
       250  -47736.396      194.63001     -47541.766      217.87343      7078.2735      1113596.6      7440.9449      7399.443       6394.4325      7.4198919     -203.5481       72.27354     
       260  -47724.517      139.72764     -47584.789      156.41442      7447.3929      1123682.8      7201.6956      7158.8228      7981.6603      14.223754     -197.11715      69.07055     
       270  -47745.97       111.62548     -47634.344      124.9562       6565.4838      1135571.6      6053.1399      6023.8432      7619.4682      15.715374     -168.37732      58.697416    
       280  -47784.668      113.49344     -47671.175      127.04724      4949.8399      1146547.1      4471.3444      4463.0792      5915.096       11.850906     -124.29099      44.110089    
       290  -47816.163      126.04077     -47690.122      141.09302      3026.8339      1155406.8      2803.8966      2815.4771      3461.1281      4.7672447     -71.270565      27.179315    
       300  -47825.5        130.49949     -47695          146.08422      1129.621       1161846        1287.4858      1313.0115      788.36575     -2.5761251     -14.24559       8.7903662    
       310  -47815.326      122.98444     -47692.341      137.67168     -457.40772      1165752.1      105.09465      137.38539     -1614.7032     -7.9884345      42.410128     -9.8057488    
       320  -47800.626      112.41245     -47688.214      125.83715     -1517.2251      1167137.5     -617.88188     -585.52807     -3348.2654     -10.735464      94.748915     -26.97262     
       330  -47794.552      108.53795     -47686.014      121.49995     -1923.1385      1166267.8     -823.91426     -796.76787     -4148.7333     -11.11275       139.55505     -41.674118    
       340  -47798.581      112.968       -47685.613      126.45905     -1661.8796      1163769.8     -536.24504     -518.04668     -3931.347      -9.7957736      174.0261      -53.643153    
       350  -47804.727      120.0157      -47684.711      134.34841     -855.99786      1160614.8      125.74012      132.38676     -2826.1205     -7.1045648      194.88827     -62.457101    
       360  -47805.947      124.2427      -47681.704      139.08021      241.15146      1157915        952.20998      945.87252     -1174.6281     -2.6566841      198.27307     -66.622776    
       370  -47803.371      125.86647     -47677.504      140.8979       1303.5265      1156620.7      1690.7318      1671.9039      547.94366      3.7135386      181.25299     -63.956845    
       380  -47803.037      128.44488     -47674.592      143.78423      2033.1451      1157289.7      2124.7781      2096.9017      1877.7556      10.481442      143.91257     -53.371667    
       390  -47807.286      132.79772     -47674.488      148.6569       2259.799       1159972.4      2146.53        2116.0789      2516.788       14.357741      90.243796     -36.323845    
       400  -47811.741      135.46677     -47676.274      151.64471      1988.5004      1164189.6      1785.5164      1760.366       2419.6188      12.512266      27.143601     -15.821913    
       410  -47810.674      133.12984     -47677.544      149.02869      1368.0871      1169056.3      1176.6364      1163.4644      1764.1606      5.0642455     -37.877068      5.354716     
       420  -47803.313      126.70938     -47676.604      141.84147      606.44923      1173592.7      491.73082      493.80602      833.81083     -5.0242098     -98.525709      24.947055    
       430  -47794.247      120.70888     -47673.538      135.12437     -105.53597      1177050.8     -116.74635     -100.83828     -99.023267     -14.089565     -149.93149      40.977728    
       440  -47789.087      119.5618      -47669.525      133.84031     -626.54599      1179058.1     -538.53063     -514.69898     -826.40837     -19.357688     -187.86404      52.256384    
       450  -47790.329      124.70378     -47665.625      139.59636     -871.67593      1179596.9     -713.40628     -689.69763     -1211.9239     -19.411947     -208.61246      58.629017    
       460  -47796.047      133.93255     -47662.115      149.92726     -819.46293      1178938.5     -639.94591     -623.31608     -1195.1268     -14.524112     -209.77368      60.171296    
       470  -47801.438      142.83521     -47658.603      159.89311     -519.36035      1177568       -377.94786     -371.90236     -808.23082     -6.9202601     -190.71191      57.136785    
       480  -47802.248      147.58525     -47654.663      165.21042     -84.204306      1176071.3     -32.031821     -35.897375     -184.68372      0.4039377     -152.55554      50.425804    
       490  -47797.654      147.31605     -47650.338      164.90907      341.10017      1174985.2      282.61954      271.67473      469.00624      5.4796684     -98.275109      40.62559     
       500  -47790.218      144.15252     -47646.065      161.36774      625.33279      1174658.4      475.62426      459.44387      940.93026      7.9018768     -32.721779      26.963648    
       510  -47783.437      141.26366     -47642.174      158.13388      691.40203      1175173.9      502.57544      481.63187      1089.9988      8.1675639      37.446714      8.1288359    
       520  -47779.432      140.89355     -47638.538      157.71957      535.95751      1176348.1      369.8224       345.59274      892.45738      6.5807048      104.29063     -15.532002    
       530  -47778.615      143.87391     -47634.741      161.05586      222.26262      1177801.7      125.57295      102.05235      439.16255      2.8968376      160.04961     -40.450269    
       540  -47780.664      150.1595      -47630.505      168.09209     -146.60038      1179083       -157.28578     -174.65734     -107.85803     -3.0101579      198.9078      -60.712569    
       550  -47784.485      158.55358     -47625.931      177.48862     -458.80456      1179806.2     -398.15229     -404.75952     -573.50189     -10.275271      218.17084     -71.104867    
       560  -47787.004      165.64763     -47621.356      185.42987     -620.78281      1179761.7     -523.70473     -517.8353      -820.80838     -16.681675      218.34563     -70.209269    
       570  -47783.681      166.66593     -47617.015      186.56978     -582.98702      1178975.3     -488.22019     -472.61184     -788.12903     -19.389246      201.22555     -61.327562    
       580  -47772.352      159.48499     -47612.867      178.53126     -362.2969       1177701.1     -298.5744      -280.14429     -508.17202     -16.638559      167.41629     -50.198451    
       590  -47757.263      148.53393     -47608.729      166.27239     -43.816971      1176339.6     -23.950568     -10.587043     -96.913302     -8.9817577      116.49551     -40.401401    
       600  -47747.718      143.21456     -47604.503      160.31776      252.00498      1175295.8      229.55771      233.74041      292.71683      1.1277189      50.368536     -30.214319    
       610  -47750.265      150.10277     -47600.163      168.02858      426.71424      1174836.6      373.67152      370.02397      536.44724      10.480076     -23.956659     -15.04685     
       620  -47762.109      166.46918     -47595.64       186.34953      448.15829      1175017.1      382.58191      374.57279      587.32016      15.652536     -96.528745      7.2870801    
       630  -47773.419      182.53227     -47590.887      204.33094      349.09938      1175700.2      290.79701      279.93636      476.56477      14.554078     -159.11243      34.007178    
       640  -47775.559      189.57883     -47585.981      212.21902      190.43247      1176641.6      155.66828      141.08324      274.5459       8.2032119     -206.55512      58.554729    
       650  -47766.972      185.88935     -47581.083      208.08893      24.310741      1177585.3      22.715048      3.8377496      46.379426     -0.31381381    -235.11582      74.304379    
       660  -47753.303      176.99447     -47576.309      198.13179     -120.96104      1178326.8     -86.022759     -107.36221     -169.49814     -8.1458159     -241.50872      78.355637    
       670  -47743.302      171.65113     -47571.651      192.15032     -233.77608      1178735       -164.52334     -184.69763     -352.10726     -13.666392     -223.98365      72.571316    
       680  -47742.761      175.77367     -47566.987      196.7652      -302.13411      1178749.8     -207.90361     -223.64635     -474.85236     -16.388385     -184.52457      61.361799    
       690  -47749.706      187.52762     -47562.178      209.92285     -304.38484      1178381       -202.33651     -212.1122      -498.70581     -16.705518     -128.6322       48.144866    
       700  -47755.524      198.3253      -47557.199      222.01003     -221.40076      1177718.7     -132.2663      -136.24895     -395.68703     -15.197677     -62.736674      33.942046    
       710  -47752.592      200.43677     -47552.155      224.37366     -61.700596      1176936.9     -2.7248081     -2.4458514     -179.93113     -11.49452       7.269096       18.210181    
       720  -47740.872      193.68745     -47547.185      216.8183       128.87924      1176262.1      148.49024      150.07289      88.074587     -4.656864       76.105234      0.41942067   
       730  -47726.423      184.04674     -47542.377      206.02627      286.96884      1175905.4      267.62414      266.50355      326.77883      4.7015402      139.36887     -18.74905     
       740  -47715.384      177.64384     -47537.74       198.85871      362.5785       1175990.1      314.63019      308.0295       465.0758       13.097173      193.12987     -37.950098    
       750  -47711.655      178.48571     -47533.169      199.80113      335.13786      1176511.7      276.93968      265.55027      462.92362      15.693867      232.87483     -55.993514    
       760  -47717.714      189.2761      -47528.438      211.88013      214.58647      1177340.2      166.95564      153.25699      323.54677      9.8054294      252.83502     -71.15971     
       770  -47731.997      208.66835     -47523.329      233.58828      42.253526      1178258.7      20.398438      5.6056468      100.75649     -2.7194208      247.30497     -79.999832    
       780  -47745.254      227.36989     -47517.884      254.52322     -113.48089      1179033.8     -106.60565     -122.39107     -111.44596     -16.552089      214.19516     -78.285832    
       790  -47745.206      232.74461     -47512.461      260.53982     -186.51548      1179504.3     -160.11155     -175.98463     -223.45027     -26.318916      157.36921     -64.506341    
       800  -47728.379      220.97343     -47507.405      247.36288     -158.34817      1179644.6     -126.19545     -140.43943     -208.40962     -29.229547      84.699471     -41.683587    
       810  -47705.864      203.13452     -47502.729      227.39358     -77.179539      1179557.2     -48.595616     -60.681137     -122.26186     -25.469959      5.2259726     -15.796885    
       820  -47694.743      196.57811     -47498.165      220.05418     -23.217617      1179385.9      0.89018527    -10.54469      -59.998348     -17.486555     -72.18775       7.6830339    
       830  -47702.721      209.35856     -47493.363      234.36092     -41.727569      1179211.3     -17.400538     -29.736483     -78.045684     -8.6417321     -139.52531      26.394475    
       840  -47721.491      233.3279      -47488.163      261.19276     -103.72145      1179011.1     -75.744435     -88.284152     -147.13575     -1.1225165     -190.87637      40.949514    
       850  -47733.976      251.17148     -47482.805      281.16729     -131.06222      1178717.8     -104.02348     -113.67938     -175.48381      5.1194952     -223.00562      52.908557    
       860  -47726.875      249.16089     -47477.714      278.91658     -61.938077      1178322.2     -49.118339     -52.096425     -84.599467      10.184912     -234.9949       63.056146    
       870  -47700.153      227.06364     -47473.089      254.1804       93.258025      1177935.2      79.23773       85.013714      115.52263      11.799311     -228.02116      70.659781    
       880  -47669.634      200.82159     -47468.812      224.80443      245.84036      1177748.9      206.21462      218.90071      312.40576      7.0919838     -204.33654      73.472737    
       890  -47657.918      193.33109     -47464.586      216.41939      287.7383       1177910.3      240.76475      255.37865      367.07149     -3.6130442     -164.64333      69.977916    
       900  -47675.129      215.17452     -47459.954      240.87144      181.27726      1178401.1      150.24651      162.20469      231.38058     -16.163148     -108.20085      60.799625    
       910  -47706.862      252.20705     -47454.655      282.32652      1.2333263      1179026.2     -2.0786434      3.6374551      2.1411671     -25.412776     -37.023077      46.249783    
       920  -47725.436      276.2843      -47449.152      309.27917     -122.0978       1179539.2     -104.1038      -108.03873     -154.15087     -28.272317      41.671341      25.548315    
       930  -47714.349      270.13468     -47444.214      302.39514     -111.74043      1179810.1     -88.702908     -104.17398     -142.34441     -24.597285      116.9964      -0.79624799   
       940  -47682.131      242.09634     -47440.035      271.00836     -7.6486221      1179896        9.9815835     -15.053349     -17.874101     -15.936532      178.64507     -29.521785    
       950  -47654.803      218.59014     -47436.213      244.69497      69.605257      1179955.3      86.01294       57.973029      64.829802     -4.9937788      220.31431     -55.026591    
       960  -47653.83       221.61706     -47432.213      248.08337      27.658879      1180082.7      56.140568      32.444594     -5.6085245      5.1653979      240.11958     -72.084262    
       970  -47677.705      250.03262     -47427.672      279.89242     -111.60924      1180210.6     -63.02449      -79.754132     -192.0491       13.063611      238.80058     -79.428606    
       980  -47703.516      280.72314     -47422.792      314.24811     -227.85051      1180167.3     -167.86776     -180.37868     -335.30508      19.215585      218.07556     -80.118326    
       990  -47707.105      288.82195     -47418.283      323.31411     -207.09241      1179844       -158.24044     -170.82794     -292.20885      23.354574      179.53473     -77.493861    
      1000  -47683.737      269.2011      -47414.536      301.35007     -42.449321      1179321.2     -24.303824     -38.333862     -64.710276      22.861011      124.82089     -71.235008    
Loop time of 80.7665 on 8 procs for 1000 steps with 6912 atoms

Performance: 1.070 ns/day, 22.435 hours/ns, 12.381 timesteps/s, 85.580 katom-step/s
99.8% CPU use with 8 MPI tasks x no OpenMP threads

MPI task timing breakdown:
Section |  min time  |  avg time  |  max time  |%varavg| %total
---------------------------------------------------------------
Pair    | 0.0067784  | 32.478     | 67.964     | 571.2 | 40.21
Bond    | 0.00014466 | 0.00041146 | 0.00070499 |   0.0 |  0.00
Neigh   | 0.0014316  | 0.24806    | 0.52324    |  49.6 |  0.31
Comm    | 0.032154   | 5.7578     | 16.605     | 257.6 |  7.13
Output  | 3.3597     | 3.4968     | 3.6158     |   4.1 |  4.33
Modify  | 0.2699     | 38.78      | 77.283     | 616.9 | 48.01
Other   |            | 0.004992   |            |       |  0.01

Nlocal:            864 ave        1743 max           0 min
Histogram: 4 0 0 0 0 0 0 0 0 4
Nghost:          571.5 ave        1160 max           0 min
Histogram: 4 0 0 0 0 0 0 0 0 4
Neighs:              0 ave           0 max           0 min
Histogram: 8 0 0 0 0 0 0 0 0 0

Total # of neighbors = 0
Ave neighs/atom = 0
Ave special neighs/atom = 0
Neighbor list builds = 100
Dangerous builds not checked

Total wall time: 0:01:20
