# LAMMPS data file written by OVITO Basic 3.8.5

6912 atoms
6 atom types

0.0 74.8208536572 xlo xhi
0.0 129.59352 ylo yhi
-50.0 50.0 zlo zhi

Atoms  # full

1 1 2 -0.26 0.0 0.0 7.74109
2 1 2 -0.26 37.4104268286 64.79676 7.74109
3 1 3 -0.26 0.0 0.0 10.85891
4 1 3 -0.26 37.4104268286 64.79676 10.85891
5 1 1 0.52 1.5587677845 0.899955 9.3
6 1 1 0.52 38.9691946131 65.696715 9.3
7 1 2 -0.26 1.5587677845 2.699865 7.74109
8 1 2 -0.26 38.9691946131 67.496625 7.74109
9 1 3 -0.26 1.5587677845 2.699865 10.85891
10 1 3 -0.26 38.9691946131 67.496625 10.85891
11 1 1 0.52 3.1175355691 3.59982 9.3
12 1 1 0.52 40.5279623977 68.39658 9.3
13 1 2 -0.26 3.1175355691 5.39973 7.74109
14 1 2 -0.26 40.5279623977 70.19649 7.74109
15 1 3 -0.26 3.1175355691 5.39973 10.85891
16 1 3 -0.26 40.5279623977 70.19649 10.85891
17 1 1 0.52 4.6763033536 6.299685 9.3
18 1 1 0.52 42.0867301822 71.096445 9.3
19 1 2 -0.26 4.6763033536 8.099595 7.74109
20 1 2 -0.26 42.0867301822 72.896355 7.74109
21 1 3 -0.26 4.6763033536 8.099595 10.85891
22 1 3 -0.26 42.0867301822 72.896355 10.85891
23 1 1 0.52 6.2350711381 8.99955 9.3
24 1 1 0.52 43.6454979667 73.79631 9.3
25 1 2 -0.26 6.2350711381 10.79946 7.74109
26 1 2 -0.26 43.6454979667 75.59622 7.74109
27 1 3 -0.26 6.2350711381 10.79946 10.85891
28 1 3 -0.26 43.6454979667 75.59622 10.85891
29 1 1 0.52 7.7938389226 11.699415 9.3
30 1 1 0.52 45.2042657512 76.496175 9.3
31 1 2 -0.26 7.7938389226 13.499325 7.74109
32 1 2 -0.26 45.2042657512 78.296085 7.74109
33 1 3 -0.26 7.7938389226 13.499325 10.85891
34 1 3 -0.26 45.2042657512 78.296085 10.85891
35 1 1 0.52 9.3526067072 14.39928 9.3
36 1 1 0.52 46.7630335358 79.19604 9.3
37 1 2 -0.26 9.3526067072 16.19919 7.74109
38 1 2 -0.26 46.7630335358 80.99595 7.74109
39 1 3 -0.26 9.3526067072 16.19919 10.85891
40 1 3 -0.26 46.7630335358 80.99595 10.85891
41 1 1 0.52 10.9113744917 17.099145 9.3
42 1 1 0.52 48.3218013203 81.895905 9.3
43 1 2 -0.26 10.9113744917 18.899055 7.74109
44 1 2 -0.26 48.3218013203 83.695815 7.74109
45 1 3 -0.26 10.9113744917 18.899055 10.85891
46 1 3 -0.26 48.3218013203 83.695815 10.85891
47 1 1 0.52 12.4701422762 19.79901 9.3
48 1 1 0.52 49.8805691048 84.59577 9.3
49 1 2 -0.26 12.4701422762 21.59892 7.74109
50 1 2 -0.26 49.8805691048 86.39568 7.74109
51 1 3 -0.26 12.4701422762 21.59892 10.85891
52 1 3 -0.26 49.8805691048 86.39568 10.85891
53 1 1 0.52 14.0289100607 22.498875 9.3
54 1 1 0.52 51.4393368893 87.295635 9.3
55 1 2 -0.26 14.0289100607 24.298785 7.74109
56 1 2 -0.26 51.4393368893 89.095545 7.74109
57 1 3 -0.26 14.0289100607 24.298785 10.85891
58 1 3 -0.26 51.4393368893 89.095545 10.85891
59 1 1 0.52 15.5876778453 25.19874 9.3
60 1 1 0.52 52.9981046739 89.9955 9.3
61 1 2 -0.26 15.5876778453 26.99865 7.74109
62 1 2 -0.26 52.9981046739 91.79541 7.74109
63 1 3 -0.26 15.5876778453 26.99865 10.85891
64 1 3 -0.26 52.9981046739 91.79541 10.85891
65 1 1 0.52 17.1464456298 27.898605 9.3
66 1 1 0.52 54.5568724584 92.695365 9.3
67 1 2 -0.26 17.1464456298 29.698515 7.74109
68 1 2 -0.26 54.5568724584 94.495275 7.74109
69 1 3 -0.26 17.1464456298 29.698515 10.85891
70 1 3 -0.26 54.5568724584 94.495275 10.85891
71 1 1 0.52 18.7052134143 30.59847 9.3
72 1 1 0.52 56.1156402429 95.39523 9.3
73 1 2 -0.26 18.7052134143 32.39838 7.74109
74 1 2 -0.26 56.1156402429 97.19514 7.74109
75 1 3 -0.26 18.7052134143 32.39838 10.85891
76 1 3 -0.26 56.1156402429 97.19514 10.85891
77 1 1 0.52 20.2639811988 33.298335 9.3
78 1 1 0.52 57.6744080274 98.095095 9.3
79 1 2 -0.26 20.2639811988 35.098245 7.74109
80 1 2 -0.26 57.6744080274 99.895005 7.74109
81 1 3 -0.26 20.2639811988 35.098245 10.85891
82 1 3 -0.26 57.6744080274 99.895005 10.85891
83 1 1 0.52 21.8227489834 35.9982 9.3
84 1 1 0.52 59.233175812 100.79496 9.3
85 1 2 -0.26 21.8227489834 37.79811 7.74109
86 1 2 -0.26 59.233175812 102.59487 7.74109
87 1 3 -0.26 21.8227489834 37.79811 10.85891
88 1 3 -0.26 59.233175812 102.59487 10.85891
89 1 1 0.52 23.3815167679 38.698065 9.3
90 1 1 0.52 60.7919435965 103.494825 9.3
91 1 2 -0.26 23.3815167679 40.497975 7.74109
92 1 2 -0.26 60.7919435965 105.294735 7.74109
93 1 3 -0.26 23.3815167679 40.497975 10.85891
94 1 3 -0.26 60.7919435965 105.294735 10.85891
95 1 1 0.52 24.9402845524 41.39793 9.3
96 1 1 0.52 62.350711381 106.19469 9.3
97 1 2 -0.26 24.9402845524 43.19784 7.74109
98 1 2 -0.26 62.350711381 107.9946 7.74109
99 1 3 -0.26 24.9402845524 43.19784 10.85891
100 1 3 -0.26 62.350711381 107.9946 10.85891
101 1 1 0.52 26.4990523369 44.097795 9.3
102 1 1 0.52 63.9094791656 108.894555 9.3
103 1 2 -0.26 26.4990523369 45.897705 7.74109
104 1 2 -0.26 63.9094791656 110.694465 7.74109
105 1 3 -0.26 26.4990523369 45.897705 10.85891
106 1 3 -0.26 63.9094791656 110.694465 10.85891
107 1 1 0.52 28.0578201215 46.79766 9.3
108 1 1 0.52 65.4682469501 111.59442 9.3
109 1 2 -0.26 28.0578201215 48.59757 7.74109
110 1 2 -0.26 65.4682469501 113.39433 7.74109
111 1 3 -0.26 28.0578201215 48.59757 10.85891
112 1 3 -0.26 65.4682469501 113.39433 10.85891
113 1 1 0.52 29.616587906 49.497525 9.3
114 1 1 0.52 67.0270147346 114.294285 9.3
115 1 2 -0.26 29.616587906 51.297435 7.74109
116 1 2 -0.26 67.0270147346 116.094195 7.74109
117 1 3 -0.26 29.616587906 51.297435 10.85891
118 1 3 -0.26 67.0270147346 116.094195 10.85891
119 1 1 0.52 31.1753556905 52.19739 9.3
120 1 1 0.52 68.5857825191 116.99415 9.3
121 1 2 -0.26 31.1753556905 53.9973 7.74109
122 1 2 -0.26 68.5857825191 118.79406 7.74109
123 1 3 -0.26 31.1753556905 53.9973 10.85891
124 1 3 -0.26 68.5857825191 118.79406 10.85891
125 1 1 0.52 32.734123475 54.897255 9.3
126 1 1 0.52 70.1445503037 119.694015 9.3
127 1 2 -0.26 32.734123475 56.697165 7.74109
128 1 2 -0.26 70.1445503037 121.493925 7.74109
129 1 3 -0.26 32.734123475 56.697165 10.85891
130 1 3 -0.26 70.1445503037 121.493925 10.85891
131 1 1 0.52 34.2928912596 57.59712 9.3
132 1 1 0.52 71.7033180882 122.39388 9.3
133 1 2 -0.26 34.2928912596 59.39703 7.74109
134 1 2 -0.26 71.7033180882 124.19379 7.74109
135 1 3 -0.26 34.2928912596 59.39703 10.85891
136 1 3 -0.26 71.7033180882 124.19379 10.85891
137 1 1 0.52 35.8516590441 60.296985 9.3
138 1 1 0.52 73.2620858727 125.093745 9.3
139 1 2 -0.26 35.8516590441 62.096895 7.74109
140 1 2 -0.26 73.2620858727 126.893655 7.74109
141 1 3 -0.26 35.8516590441 62.096895 10.85891
142 1 3 -0.26 73.2620858727 126.893655 10.85891
143 1 1 0.52 37.4104268286 62.99685 9.3
144 1 1 0.52 74.8208536572 127.79361 9.3
145 1 2 -0.26 3.1175355691 0.0 7.74109
146 1 2 -0.26 40.5279623977 64.79676 7.74109
147 1 3 -0.26 3.1175355691 0.0 10.85891
148 1 3 -0.26 40.5279623977 64.79676 10.85891
149 1 1 0.52 4.6763033536 0.899955 9.3
150 1 1 0.52 42.0867301822 65.696715 9.3
151 1 2 -0.26 4.6763033536 2.699865 7.74109
152 1 2 -0.26 42.0867301822 67.496625 7.74109
153 1 3 -0.26 4.6763033536 2.699865 10.85891
154 1 3 -0.26 42.0867301822 67.496625 10.85891
155 1 1 0.52 6.2350711381 3.59982 9.3
156 1 1 0.52 43.6454979667 68.39658 9.3
157 1 2 -0.26 6.2350711381 5.39973 7.74109
158 1 2 -0.26 43.6454979667 70.19649 7.74109
159 1 3 -0.26 6.2350711381 5.39973 10.85891
160 1 3 -0.26 43.6454979667 70.19649 10.85891
161 1 1 0.52 7.7938389226 6.299685 9.3
162 1 1 0.52 45.2042657512 71.096445 9.3
163 1 2 -0.26 7.7938389226 8.099595 7.74109
164 1 2 -0.26 45.2042657512 72.896355 7.74109
165 1 3 -0.26 7.7938389226 8.099595 10.85891
166 1 3 -0.26 45.2042657512 72.896355 10.85891
167 1 1 0.52 9.3526067072 8.99955 9.3
168 1 1 0.52 46.7630335358 73.79631 9.3
169 1 2 -0.26 9.3526067072 10.79946 7.74109
170 1 2 -0.26 46.7630335358 75.59622 7.74109
171 1 3 -0.26 9.3526067072 10.79946 10.85891
172 1 3 -0.26 46.7630335358 75.59622 10.85891
173 1 1 0.52 10.9113744917 11.699415 9.3
174 1 1 0.52 48.3218013203 76.496175 9.3
175 1 2 -0.26 10.9113744917 13.499325 7.74109
176 1 2 -0.26 48.3218013203 78.296085 7.74109
177 1 3 -0.26 10.9113744917 13.499325 10.85891
178 1 3 -0.26 48.3218013203 78.296085 10.85891
179 1 1 0.52 12.4701422762 14.39928 9.3
180 1 1 0.52 49.8805691048 79.19604 9.3
181 1 2 -0.26 12.4701422762 16.19919 7.74109
182 1 2 -0.26 49.8805691048 80.99595 7.74109
183 1 3 -0.26 12.4701422762 16.19919 10.85891
184 1 3 -0.26 49.8805691048 80.99595 10.85891
185 1 1 0.52 14.0289100607 17.099145 9.3
186 1 1 0.52 51.4393368893 81.895905 9.3
187 1 2 -0.26 14.0289100607 18.899055 7.74109
188 1 2 -0.26 51.4393368893 83.695815 7.74109
189 1 3 -0.26 14.0289100607 18.899055 10.85891
190 1 3 -0.26 51.4393368893 83.695815 10.85891
191 1 1 0.52 15.5876778453 19.79901 9.3
192 1 1 0.52 52.9981046739 84.59577 9.3
193 1 2 -0.26 15.5876778453 21.59892 7.74109
194 1 2 -0.26 52.9981046739 86.39568 7.74109
195 1 3 -0.26 15.5876778453 21.59892 10.85891
196 1 3 -0.26 52.9981046739 86.39568 10.85891
197 1 1 0.52 17.1464456298 22.498875 9.3
198 1 1 0.52 54.5568724584 87.295635 9.3
199 1 2 -0.26 17.1464456298 24.298785 7.74109
200 1 2 -0.26 54.5568724584 89.095545 7.74109
201 1 3 -0.26 17.1464456298 24.298785 10.85891
202 1 3 -0.26 54.5568724584 89.095545 10.85891
203 1 1 0.52 18.7052134143 25.19874 9.3
204 1 1 0.52 56.1156402429 89.9955 9.3
205 1 2 -0.26 18.7052134143 26.99865 7.74109
206 1 2 -0.26 56.1156402429 91.79541 7.74109
207 1 3 -0.26 18.7052134143 26.99865 10.85891
208 1 3 -0.26 56.1156402429 91.79541 10.85891
209 1 1 0.52 20.2639811988 27.898605 9.3
210 1 1 0.52 57.6744080274 92.695365 9.3
211 1 2 -0.26 20.2639811988 29.698515 7.74109
212 1 2 -0.26 57.6744080274 94.495275 7.74109
213 1 3 -0.26 20.2639811988 29.698515 10.85891
214 1 3 -0.26 57.6744080274 94.495275 10.85891
215 1 1 0.52 21.8227489834 30.59847 9.3
216 1 1 0.52 59.233175812 95.39523 9.3
217 1 2 -0.26 21.8227489834 32.39838 7.74109
218 1 2 -0.26 59.233175812 97.19514 7.74109
219 1 3 -0.26 21.8227489834 32.39838 10.85891
220 1 3 -0.26 59.233175812 97.19514 10.85891
221 1 1 0.52 23.3815167679 33.298335 9.3
222 1 1 0.52 60.7919435965 98.095095 9.3
223 1 2 -0.26 23.3815167679 35.098245 7.74109
224 1 2 -0.26 60.7919435965 99.895005 7.74109
225 1 3 -0.26 23.3815167679 35.098245 10.85891
226 1 3 -0.26 60.7919435965 99.895005 10.85891
227 1 1 0.52 24.9402845524 35.9982 9.3
228 1 1 0.52 62.350711381 100.79496 9.3
229 1 2 -0.26 24.9402845524 37.79811 7.74109
230 1 2 -0.26 62.350711381 102.59487 7.74109
231 1 3 -0.26 24.9402845524 37.79811 10.85891
232 1 3 -0.26 62.350711381 102.59487 10.85891
233 1 1 0.52 26.4990523369 38.698065 9.3
234 1 1 0.52 63.9094791656 103.494825 9.3
235 1 2 -0.26 26.4990523369 40.497975 7.74109
236 1 2 -0.26 63.9094791656 105.294735 7.74109
237 1 3 -0.26 26.4990523369 40.497975 10.85891
238 1 3 -0.26 63.9094791656 105.294735 10.85891
239 1 1 0.52 28.0578201215 41.39793 9.3
240 1 1 0.52 65.4682469501 106.19469 9.3
241 1 2 -0.26 28.0578201215 43.19784 7.74109
242 1 2 -0.26 65.4682469501 107.9946 7.74109
243 1 3 -0.26 28.0578201215 43.19784 10.85891
244 1 3 -0.26 65.4682469501 107.9946 10.85891
245 1 1 0.52 29.616587906 44.097795 9.3
246 1 1 0.52 67.0270147346 108.894555 9.3
247 1 2 -0.26 29.616587906 45.897705 7.74109
248 1 2 -0.26 67.0270147346 110.694465 7.74109
249 1 3 -0.26 29.616587906 45.897705 10.85891
250 1 3 -0.26 67.0270147346 110.694465 10.85891
251 1 1 0.52 31.1753556905 46.79766 9.3
252 1 1 0.52 68.5857825191 111.59442 9.3
253 1 2 -0.26 31.1753556905 48.59757 7.74109
254 1 2 -0.26 68.5857825191 113.39433 7.74109
255 1 3 -0.26 31.1753556905 48.59757 10.85891
256 1 3 -0.26 68.5857825191 113.39433 10.85891
257 1 1 0.52 32.734123475 49.497525 9.3
258 1 1 0.52 70.1445503037 114.294285 9.3
259 1 2 -0.26 32.734123475 51.297435 7.74109
260 1 2 -0.26 70.1445503037 116.094195 7.74109
261 1 3 -0.26 32.734123475 51.297435 10.85891
262 1 3 -0.26 70.1445503037 116.094195 10.85891
263 1 1 0.52 34.2928912596 52.19739 9.3
264 1 1 0.52 71.7033180882 116.99415 9.3
265 1 2 -0.26 34.2928912596 53.9973 7.74109
266 1 2 -0.26 71.7033180882 118.79406 7.74109
267 1 3 -0.26 34.2928912596 53.9973 10.85891
268 1 3 -0.26 71.7033180882 118.79406 10.85891
269 1 1 0.52 35.8516590441 54.897255 9.3
270 1 1 0.52 73.2620858727 119.694015 9.3
271 1 2 -0.26 35.8516590441 56.697165 7.74109
272 1 2 -0.26 73.2620858727 121.493925 7.74109
273 1 3 -0.26 35.8516590441 56.697165 10.85891
274 1 3 -0.26 73.2620858727 121.493925 10.85891
275 1 1 0.52 37.4104268286 57.59712 9.3
276 1 1 0.52 74.8208536572 122.39388 9.3
277 1 2 -0.26 37.4104268286 59.39703 7.74109
278 1 2 -0.26 74.8208536572 124.19379 7.74109
279 1 3 -0.26 37.4104268286 59.39703 10.85891
280 1 3 -0.26 74.8208536572 124.19379 10.85891
281 1 1 0.52 38.9691946131 60.296985 9.3
282 1 1 0.52 1.5587677845 125.093745 9.3
283 1 2 -0.26 38.9691946131 62.096895 7.74109
284 1 2 -0.26 1.5587677845 126.893655 7.74109
285 1 3 -0.26 38.9691946131 62.096895 10.85891
286 1 3 -0.26 1.5587677845 126.893655 10.85891
287 1 1 0.52 40.5279623977 62.99685 9.3
288 1 1 0.52 3.1175355691 127.79361 9.3
289 1 2 -0.26 6.2350711381 0.0 7.74109
290 1 2 -0.26 43.6454979667 64.79676 7.74109
291 1 3 -0.26 6.2350711381 0.0 10.85891
292 1 3 -0.26 43.6454979667 64.79676 10.85891
293 1 1 0.52 7.7938389226 0.899955 9.3
294 1 1 0.52 45.2042657512 65.696715 9.3
295 1 2 -0.26 7.7938389226 2.699865 7.74109
296 1 2 -0.26 45.2042657512 67.496625 7.74109
297 1 3 -0.26 7.7938389226 2.699865 10.85891
298 1 3 -0.26 45.2042657512 67.496625 10.85891
299 1 1 0.52 9.3526067072 3.59982 9.3
300 1 1 0.52 46.7630335358 68.39658 9.3
301 1 2 -0.26 9.3526067072 5.39973 7.74109
302 1 2 -0.26 46.7630335358 70.19649 7.74109
303 1 3 -0.26 9.3526067072 5.39973 10.85891
304 1 3 -0.26 46.7630335358 70.19649 10.85891
305 1 1 0.52 10.9113744917 6.299685 9.3
306 1 1 0.52 48.3218013203 71.096445 9.3
307 1 2 -0.26 10.9113744917 8.099595 7.74109
308 1 2 -0.26 48.3218013203 72.896355 7.74109
309 1 3 -0.26 10.9113744917 8.099595 10.85891
310 1 3 -0.26 48.3218013203 72.896355 10.85891
311 1 1 0.52 12.4701422762 8.99955 9.3
312 1 1 0.52 49.8805691048 73.79631 9.3
313 1 2 -0.26 12.4701422762 10.79946 7.74109
314 1 2 -0.26 49.8805691048 75.59622 7.74109
315 1 3 -0.26 12.4701422762 10.79946 10.85891
316 1 3 -0.26 49.8805691048 75.59622 10.85891
317 1 1 0.52 14.0289100607 11.699415 9.3
318 1 1 0.52 51.4393368893 76.496175 9.3
319 1 2 -0.26 14.0289100607 13.499325 7.74109
320 1 2 -0.26 51.4393368893 78.296085 7.74109
321 1 3 -0.26 14.0289100607 13.499325 10.85891
322 1 3 -0.26 51.4393368893 78.296085 10.85891
323 1 1 0.52 15.5876778453 14.39928 9.3
324 1 1 0.52 52.9981046739 79.19604 9.3
325 1 2 -0.26 15.5876778453 16.19919 7.74109
326 1 2 -0.26 52.9981046739 80.99595 7.74109
327 1 3 -0.26 15.5876778453 16.19919 10.85891
328 1 3 -0.26 52.9981046739 80.99595 10.85891
329 1 1 0.52 17.1464456298 17.099145 9.3
330 1 1 0.52 54.5568724584 81.895905 9.3
331 1 2 -0.26 17.1464456298 18.899055 7.74109
332 1 2 -0.26 54.5568724584 83.695815 7.74109
333 1 3 -0.26 17.1464456298 18.899055 10.85891
334 1 3 -0.26 54.5568724584 83.695815 10.85891
335 1 1 0.52 18.7052134143 19.79901 9.3
336 1 1 0.52 56.1156402429 84.59577 9.3
337 1 2 -0.26 18.7052134143 21.59892 7.74109
338 1 2 -0.26 56.1156402429 86.39568 7.74109
339 1 3 -0.26 18.7052134143 21.59892 10.85891
340 1 3 -0.26 56.1156402429 86.39568 10.85891
341 1 1 0.52 20.2639811988 22.498875 9.3
342 1 1 0.52 57.6744080274 87.295635 9.3
343 1 2 -0.26 20.2639811988 24.298785 7.74109
344 1 2 -0.26 57.6744080274 89.095545 7.74109
345 1 3 -0.26 20.2639811988 24.298785 10.85891
346 1 3 -0.26 57.6744080274 89.095545 10.85891
347 1 1 0.52 21.8227489834 25.19874 9.3
348 1 1 0.52 59.233175812 89.9955 9.3
349 1 2 -0.26 21.8227489834 26.99865 7.74109
350 1 2 -0.26 59.233175812 91.79541 7.74109
351 1 3 -0.26 21.8227489834 26.99865 10.85891
352 1 3 -0.26 59.233175812 91.79541 10.85891
353 1 1 0.52 23.3815167679 27.898605 9.3
354 1 1 0.52 60.7919435965 92.695365 9.3
355 1 2 -0.26 23.3815167679 29.698515 7.74109
356 1 2 -0.26 60.7919435965 94.495275 7.74109
357 1 3 -0.26 23.3815167679 29.698515 10.85891
358 1 3 -0.26 60.7919435965 94.495275 10.85891
359 1 1 0.52 24.9402845524 30.59847 9.3
360 1 1 0.52 62.350711381 95.39523 9.3
361 1 2 -0.26 24.9402845524 32.39838 7.74109
362 1 2 -0.26 62.350711381 97.19514 7.74109
363 1 3 -0.26 24.9402845524 32.39838 10.85891
364 1 3 -0.26 62.350711381 97.19514 10.85891
365 1 1 0.52 26.4990523369 33.298335 9.3
366 1 1 0.52 63.9094791656 98.095095 9.3
367 1 2 -0.26 26.4990523369 35.098245 7.74109
368 1 2 -0.26 63.9094791656 99.895005 7.74109
369 1 3 -0.26 26.4990523369 35.098245 10.85891
370 1 3 -0.26 63.9094791656 99.895005 10.85891
371 1 1 0.52 28.0578201215 35.9982 9.3
372 1 1 0.52 65.4682469501 100.79496 9.3
373 1 2 -0.26 28.0578201215 37.79811 7.74109
374 1 2 -0.26 65.4682469501 102.59487 7.74109
375 1 3 -0.26 28.0578201215 37.79811 10.85891
376 1 3 -0.26 65.4682469501 102.59487 10.85891
377 1 1 0.52 29.616587906 38.698065 9.3
378 1 1 0.52 67.0270147346 103.494825 9.3
379 1 2 -0.26 29.616587906 40.497975 7.74109
380 1 2 -0.26 67.0270147346 105.294735 7.74109
381 1 3 -0.26 29.616587906 40.497975 10.85891
382 1 3 -0.26 67.0270147346 105.294735 10.85891
383 1 1 0.52 31.1753556905 41.39793 9.3
384 1 1 0.52 68.5857825191 106.19469 9.3
385 1 2 -0.26 31.1753556905 43.19784 7.74109
386 1 2 -0.26 68.5857825191 107.9946 7.74109
387 1 3 -0.26 31.1753556905 43.19784 10.85891
388 1 3 -0.26 68.5857825191 107.9946 10.85891
389 1 1 0.52 32.734123475 44.097795 9.3
390 1 1 0.52 70.1445503037 108.894555 9.3
391 1 2 -0.26 32.734123475 45.897705 7.74109
392 1 2 -0.26 70.1445503037 110.694465 7.74109
393 1 3 -0.26 32.734123475 45.897705 10.85891
394 1 3 -0.26 70.1445503037 110.694465 10.85891
395 1 1 0.52 34.2928912596 46.79766 9.3
396 1 1 0.52 71.7033180882 111.59442 9.3
397 1 2 -0.26 34.2928912596 48.59757 7.74109
398 1 2 -0.26 71.7033180882 113.39433 7.74109
399 1 3 -0.26 34.2928912596 48.59757 10.85891
400 1 3 -0.26 71.7033180882 113.39433 10.85891
401 1 1 0.52 35.8516590441 49.497525 9.3
402 1 1 0.52 73.2620858727 114.294285 9.3
403 1 2 -0.26 35.8516590441 51.297435 7.74109
404 1 2 -0.26 73.2620858727 116.094195 7.74109
405 1 3 -0.26 35.8516590441 51.297435 10.85891
406 1 3 -0.26 73.2620858727 116.094195 10.85891
407 1 1 0.52 37.4104268286 52.19739 9.3
408 1 1 0.52 74.8208536572 116.99415 9.3
409 1 2 -0.26 37.4104268286 53.9973 7.74109
410 1 2 -0.26 74.8208536572 118.79406 7.74109
411 1 3 -0.26 37.4104268286 53.9973 10.85891
412 1 3 -0.26 74.8208536572 118.79406 10.85891
413 1 1 0.52 38.9691946131 54.897255 9.3
414 1 1 0.52 1.5587677845 119.694015 9.3
415 1 2 -0.26 38.9691946131 56.697165 7.74109
416 1 2 -0.26 1.5587677845 121.493925 7.74109
417 1 3 -0.26 38.9691946131 56.697165 10.85891
418 1 3 -0.26 1.5587677845 121.493925 10.85891
419 1 1 0.52 40.5279623977 57.59712 9.3
420 1 1 0.52 3.1175355691 122.39388 9.3
421 1 2 -0.26 40.5279623977 59.39703 7.74109
422 1 2 -0.26 3.1175355691 124.19379 7.74109
423 1 3 -0.26 40.5279623977 59.39703 10.85891
424 1 3 -0.26 3.1175355691 124.19379 10.85891
425 1 1 0.52 42.0867301822 60.296985 9.3
426 1 1 0.52 4.6763033536 125.093745 9.3
427 1 2 -0.26 42.0867301822 62.096895 7.74109
428 1 2 -0.26 4.6763033536 126.893655 7.74109
429 1 3 -0.26 42.0867301822 62.096895 10.85891
430 1 3 -0.26 4.6763033536 126.893655 10.85891
431 1 1 0.52 43.6454979667 62.99685 9.3
432 1 1 0.52 6.2350711381 127.79361 9.3
433 1 2 -0.26 9.3526067072 0.0 7.74109
434 1 2 -0.26 46.7630335358 64.79676 7.74109
435 1 3 -0.26 9.3526067072 0.0 10.85891
436 1 3 -0.26 46.7630335358 64.79676 10.85891
437 1 1 0.52 10.9113744917 0.899955 9.3
438 1 1 0.52 48.3218013203 65.696715 9.3
439 1 2 -0.26 10.9113744917 2.699865 7.74109
440 1 2 -0.26 48.3218013203 67.496625 7.74109
441 1 3 -0.26 10.9113744917 2.699865 10.85891
442 1 3 -0.26 48.3218013203 67.496625 10.85891
443 1 1 0.52 12.4701422762 3.59982 9.3
444 1 1 0.52 49.8805691048 68.39658 9.3
445 1 2 -0.26 12.4701422762 5.39973 7.74109
446 1 2 -0.26 49.8805691048 70.19649 7.74109
447 1 3 -0.26 12.4701422762 5.39973 10.85891
448 1 3 -0.26 49.8805691048 70.19649 10.85891
449 1 1 0.52 14.0289100607 6.299685 9.3
450 1 1 0.52 51.4393368893 71.096445 9.3
451 1 2 -0.26 14.0289100607 8.099595 7.74109
452 1 2 -0.26 51.4393368893 72.896355 7.74109
453 1 3 -0.26 14.0289100607 8.099595 10.85891
454 1 3 -0.26 51.4393368893 72.896355 10.85891
455 1 1 0.52 15.5876778453 8.99955 9.3
456 1 1 0.52 52.9981046739 73.79631 9.3
457 1 2 -0.26 15.5876778453 10.79946 7.74109
458 1 2 -0.26 52.9981046739 75.59622 7.74109
459 1 3 -0.26 15.5876778453 10.79946 10.85891
460 1 3 -0.26 52.9981046739 75.59622 10.85891
461 1 1 0.52 17.1464456298 11.699415 9.3
462 1 1 0.52 54.5568724584 76.496175 9.3
463 1 2 -0.26 17.1464456298 13.499325 7.74109
464 1 2 -0.26 54.5568724584 78.296085 7.74109
465 1 3 -0.26 17.1464456298 13.499325 10.85891
466 1 3 -0.26 54.5568724584 78.296085 10.85891
467 1 1 0.52 18.7052134143 14.39928 9.3
468 1 1 0.52 56.1156402429 79.19604 9.3
469 1 2 -0.26 18.7052134143 16.19919 7.74109
470 1 2 -0.26 56.1156402429 80.99595 7.74109
471 1 3 -0.26 18.7052134143 16.19919 10.85891
472 1 3 -0.26 56.1156402429 80.99595 10.85891
473 1 1 0.52 20.2639811988 17.099145 9.3
474 1 1 0.52 57.6744080274 81.895905 9.3
475 1 2 -0.26 20.2639811988 18.899055 7.74109
476 1 2 -0.26 57.6744080274 83.695815 7.74109
477 1 3 -0.26 20.2639811988 18.899055 10.85891
478 1 3 -0.26 57.6744080274 83.695815 10.85891
479 1 1 0.52 21.8227489834 19.79901 9.3
480 1 1 0.52 59.233175812 84.59577 9.3
481 1 2 -0.26 21.8227489834 21.59892 7.74109
482 1 2 -0.26 59.233175812 86.39568 7.74109
483 1 3 -0.26 21.8227489834 21.59892 10.85891
484 1 3 -0.26 59.233175812 86.39568 10.85891
485 1 1 0.52 23.3815167679 22.498875 9.3
486 1 1 0.52 60.7919435965 87.295635 9.3
487 1 2 -0.26 23.3815167679 24.298785 7.74109
488 1 2 -0.26 60.7919435965 89.095545 7.74109
489 1 3 -0.26 23.3815167679 24.298785 10.85891
490 1 3 -0.26 60.7919435965 89.095545 10.85891
491 1 1 0.52 24.9402845524 25.19874 9.3
492 1 1 0.52 62.350711381 89.9955 9.3
493 1 2 -0.26 24.9402845524 26.99865 7.74109
494 1 2 -0.26 62.350711381 91.79541 7.74109
495 1 3 -0.26 24.9402845524 26.99865 10.85891
496 1 3 -0.26 62.350711381 91.79541 10.85891
497 1 1 0.52 26.4990523369 27.898605 9.3
498 1 1 0.52 63.9094791656 92.695365 9.3
499 1 2 -0.26 26.4990523369 29.698515 7.74109
500 1 2 -0.26 63.9094791656 94.495275 7.74109
501 1 3 -0.26 26.4990523369 29.698515 10.85891
502 1 3 -0.26 63.9094791656 94.495275 10.85891
503 1 1 0.52 28.0578201215 30.59847 9.3
504 1 1 0.52 65.4682469501 95.39523 9.3
505 1 2 -0.26 28.0578201215 32.39838 7.74109
506 1 2 -0.26 65.4682469501 97.19514 7.74109
507 1 3 -0.26 28.0578201215 32.39838 10.85891
508 1 3 -0.26 65.4682469501 97.19514 10.85891
509 1 1 0.52 29.616587906 33.298335 9.3
510 1 1 0.52 67.0270147346 98.095095 9.3
511 1 2 -0.26 29.616587906 35.098245 7.74109
512 1 2 -0.26 67.0270147346 99.895005 7.74109
513 1 3 -0.26 29.616587906 35.098245 10.85891
514 1 3 -0.26 67.0270147346 99.895005 10.85891
515 1 1 0.52 31.1753556905 35.9982 9.3
516 1 1 0.52 68.5857825191 100.79496 9.3
517 1 2 -0.26 31.1753556905 37.79811 7.74109
518 1 2 -0.26 68.5857825191 102.59487 7.74109
519 1 3 -0.26 31.1753556905 37.79811 10.85891
520 1 3 -0.26 68.5857825191 102.59487 10.85891
521 1 1 0.52 32.734123475 38.698065 9.3
522 1 1 0.52 70.1445503037 103.494825 9.3
523 1 2 -0.26 32.734123475 40.497975 7.74109
524 1 2 -0.26 70.1445503037 105.294735 7.74109
525 1 3 -0.26 32.734123475 40.497975 10.85891
526 1 3 -0.26 70.1445503037 105.294735 10.85891
527 1 1 0.52 34.2928912596 41.39793 9.3
528 1 1 0.52 71.7033180882 106.19469 9.3
529 1 2 -0.26 34.2928912596 43.19784 7.74109
530 1 2 -0.26 71.7033180882 107.9946 7.74109
531 1 3 -0.26 34.2928912596 43.19784 10.85891
532 1 3 -0.26 71.7033180882 107.9946 10.85891
533 1 1 0.52 35.8516590441 44.097795 9.3
534 1 1 0.52 73.2620858727 108.894555 9.3
535 1 2 -0.26 35.8516590441 45.897705 7.74109
536 1 2 -0.26 73.2620858727 110.694465 7.74109
537 1 3 -0.26 35.8516590441 45.897705 10.85891
538 1 3 -0.26 73.2620858727 110.694465 10.85891
539 1 1 0.52 37.4104268286 46.79766 9.3
540 1 1 0.52 74.8208536572 111.59442 9.3
541 1 2 -0.26 37.4104268286 48.59757 7.74109
542 1 2 -0.26 74.8208536572 113.39433 7.74109
543 1 3 -0.26 37.4104268286 48.59757 10.85891
544 1 3 -0.26 74.8208536572 113.39433 10.85891
545 1 1 0.52 38.9691946131 49.497525 9.3
546 1 1 0.52 1.5587677845 114.294285 9.3
547 1 2 -0.26 38.9691946131 51.297435 7.74109
548 1 2 -0.26 1.5587677845 116.094195 7.74109
549 1 3 -0.26 38.9691946131 51.297435 10.85891
550 1 3 -0.26 1.5587677845 116.094195 10.85891
551 1 1 0.52 40.5279623977 52.19739 9.3
552 1 1 0.52 3.1175355691 116.99415 9.3
553 1 2 -0.26 40.5279623977 53.9973 7.74109
554 1 2 -0.26 3.1175355691 118.79406 7.74109
555 1 3 -0.26 40.5279623977 53.9973 10.85891
556 1 3 -0.26 3.1175355691 118.79406 10.85891
557 1 1 0.52 42.0867301822 54.897255 9.3
558 1 1 0.52 4.6763033536 119.694015 9.3
559 1 2 -0.26 42.0867301822 56.697165 7.74109
560 1 2 -0.26 4.6763033536 121.493925 7.74109
561 1 3 -0.26 42.0867301822 56.697165 10.85891
562 1 3 -0.26 4.6763033536 121.493925 10.85891
563 1 1 0.52 43.6454979667 57.59712 9.3
564 1 1 0.52 6.2350711381 122.39388 9.3
565 1 2 -0.26 43.6454979667 59.39703 7.74109
566 1 2 -0.26 6.2350711381 124.19379 7.74109
567 1 3 -0.26 43.6454979667 59.39703 10.85891
568 1 3 -0.26 6.2350711381 124.19379 10.85891
569 1 1 0.52 45.2042657512 60.296985 9.3
570 1 1 0.52 7.7938389226 125.093745 9.3
571 1 2 -0.26 45.2042657512 62.096895 7.74109
572 1 2 -0.26 7.7938389226 126.893655 7.74109
573 1 3 -0.26 45.2042657512 62.096895 10.85891
574 1 3 -0.26 7.7938389226 126.893655 10.85891
575 1 1 0.52 46.7630335358 62.99685 9.3
576 1 1 0.52 9.3526067072 127.79361 9.3
577 1 2 -0.26 12.4701422762 0.0 7.74109
578 1 2 -0.26 49.8805691048 64.79676 7.74109
579 1 3 -0.26 12.4701422762 0.0 10.85891
580 1 3 -0.26 49.8805691048 64.79676 10.85891
581 1 1 0.52 14.0289100607 0.899955 9.3
582 1 1 0.52 51.4393368893 65.696715 9.3
583 1 2 -0.26 14.0289100607 2.699865 7.74109
584 1 2 -0.26 51.4393368893 67.496625 7.74109
585 1 3 -0.26 14.0289100607 2.699865 10.85891
586 1 3 -0.26 51.4393368893 67.496625 10.85891
587 1 1 0.52 15.5876778453 3.59982 9.3
588 1 1 0.52 52.9981046739 68.39658 9.3
589 1 2 -0.26 15.5876778453 5.39973 7.74109
590 1 2 -0.26 52.9981046739 70.19649 7.74109
591 1 3 -0.26 15.5876778453 5.39973 10.85891
592 1 3 -0.26 52.9981046739 70.19649 10.85891
593 1 1 0.52 17.1464456298 6.299685 9.3
594 1 1 0.52 54.5568724584 71.096445 9.3
595 1 2 -0.26 17.1464456298 8.099595 7.74109
596 1 2 -0.26 54.5568724584 72.896355 7.74109
597 1 3 -0.26 17.1464456298 8.099595 10.85891
598 1 3 -0.26 54.5568724584 72.896355 10.85891
599 1 1 0.52 18.7052134143 8.99955 9.3
600 1 1 0.52 56.1156402429 73.79631 9.3
601 1 2 -0.26 18.7052134143 10.79946 7.74109
602 1 2 -0.26 56.1156402429 75.59622 7.74109
603 1 3 -0.26 18.7052134143 10.79946 10.85891
604 1 3 -0.26 56.1156402429 75.59622 10.85891
605 1 1 0.52 20.2639811988 11.699415 9.3
606 1 1 0.52 57.6744080274 76.496175 9.3
607 1 2 -0.26 20.2639811988 13.499325 7.74109
608 1 2 -0.26 57.6744080274 78.296085 7.74109
609 1 3 -0.26 20.2639811988 13.499325 10.85891
610 1 3 -0.26 57.6744080274 78.296085 10.85891
611 1 1 0.52 21.8227489834 14.39928 9.3
612 1 1 0.52 59.233175812 79.19604 9.3
613 1 2 -0.26 21.8227489834 16.19919 7.74109
614 1 2 -0.26 59.233175812 80.99595 7.74109
615 1 3 -0.26 21.8227489834 16.19919 10.85891
616 1 3 -0.26 59.233175812 80.99595 10.85891
617 1 1 0.52 23.3815167679 17.099145 9.3
618 1 1 0.52 60.7919435965 81.895905 9.3
619 1 2 -0.26 23.3815167679 18.899055 7.74109
620 1 2 -0.26 60.7919435965 83.695815 7.74109
621 1 3 -0.26 23.3815167679 18.899055 10.85891
622 1 3 -0.26 60.7919435965 83.695815 10.85891
623 1 1 0.52 24.9402845524 19.79901 9.3
624 1 1 0.52 62.350711381 84.59577 9.3
625 1 2 -0.26 24.9402845524 21.59892 7.74109
626 1 2 -0.26 62.350711381 86.39568 7.74109
627 1 3 -0.26 24.9402845524 21.59892 10.85891
628 1 3 -0.26 62.350711381 86.39568 10.85891
629 1 1 0.52 26.4990523369 22.498875 9.3
630 1 1 0.52 63.9094791656 87.295635 9.3
631 1 2 -0.26 26.4990523369 24.298785 7.74109
632 1 2 -0.26 63.9094791656 89.095545 7.74109
633 1 3 -0.26 26.4990523369 24.298785 10.85891
634 1 3 -0.26 63.9094791656 89.095545 10.85891
635 1 1 0.52 28.0578201215 25.19874 9.3
636 1 1 0.52 65.4682469501 89.9955 9.3
637 1 2 -0.26 28.0578201215 26.99865 7.74109
638 1 2 -0.26 65.4682469501 91.79541 7.74109
639 1 3 -0.26 28.0578201215 26.99865 10.85891
640 1 3 -0.26 65.4682469501 91.79541 10.85891
641 1 1 0.52 29.616587906 27.898605 9.3
642 1 1 0.52 67.0270147346 92.695365 9.3
643 1 2 -0.26 29.616587906 29.698515 7.74109
644 1 2 -0.26 67.0270147346 94.495275 7.74109
645 1 3 -0.26 29.616587906 29.698515 10.85891
646 1 3 -0.26 67.0270147346 94.495275 10.85891
647 1 1 0.52 31.1753556905 30.59847 9.3
648 1 1 0.52 68.5857825191 95.39523 9.3
649 1 2 -0.26 31.1753556905 32.39838 7.74109
650 1 2 -0.26 68.5857825191 97.19514 7.74109
651 1 3 -0.26 31.1753556905 32.39838 10.85891
652 1 3 -0.26 68.5857825191 97.19514 10.85891
653 1 1 0.52 32.734123475 33.298335 9.3
654 1 1 0.52 70.1445503037 98.095095 9.3
655 1 2 -0.26 32.734123475 35.098245 7.74109
656 1 2 -0.26 70.1445503037 99.895005 7.74109
657 1 3 -0.26 32.734123475 35.098245 10.85891
658 1 3 -0.26 70.1445503037 99.895005 10.85891
659 1 1 0.52 34.2928912596 35.9982 9.3
660 1 1 0.52 71.7033180882 100.79496 9.3
661 1 2 -0.26 34.2928912596 37.79811 7.74109
662 1 2 -0.26 71.7033180882 102.59487 7.74109
663 1 3 -0.26 34.2928912596 37.79811 10.85891
664 1 3 -0.26 71.7033180882 102.59487 10.85891
665 1 1 0.52 35.8516590441 38.698065 9.3
666 1 1 0.52 73.2620858727 103.494825 9.3
667 1 2 -0.26 35.8516590441 40.497975 7.74109
668 1 2 -0.26 73.2620858727 105.294735 7.74109
669 1 3 -0.26 35.8516590441 40.497975 10.85891
670 1 3 -0.26 73.2620858727 105.294735 10.85891
671 1 1 0.52 37.4104268286 41.39793 9.3
672 1 1 0.52 74.8208536572 106.19469 9.3
673 1 2 -0.26 37.4104268286 43.19784 7.74109
674 1 2 -0.26 74.8208536572 107.9946 7.74109
675 1 3 -0.26 37.4104268286 43.19784 10.85891
676 1 3 -0.26 74.8208536572 107.9946 10.85891
677 1 1 0.52 38.9691946131 44.097795 9.3
678 1 1 0.52 1.5587677845 108.894555 9.3
679 1 2 -0.26 38.9691946131 45.897705 7.74109
680 1 2 -0.26 1.5587677845 110.694465 7.74109
681 1 3 -0.26 38.9691946131 45.897705 10.85891