ITEM: TIMESTEP
0
ITEM: NUMBER OF ATOMS
1000
ITEM: BOX BOUNDS pp pp pp
0.0000000000000000e+00 1.7868549999999999e+01
0.0000000000000000e+00 1.7868549999999999e+01
0.0000000000000000e+00 1.7868549999999999e+01
ITEM: ATOMS id type x y z fx fy fz
1 1 1.04931 2.74512 0.957823 -5.36603 -0.176234 -4.01061
3 1 0.901355 1.01589 2.65348 -0.225438 -2.41984 -0.750469
5 1 2.59609 2.85901 2.60593 5.39572 -4.85981 -0.518668
7 1 2.78176 0.981229 0.766475 -3.6402 -0.538413 2.00571
8 1 1.83874 1.76074 1.75434 -0.21488 4.49554 -0.0260513
12 1 0.017699 1.84403 3.52068 1.68522 3.03572 -0.584011
14 1 1.83224 0.000810259 3.5634 -1.44462 3.97516 -0.418156
202 1 3.53689 0.159275 1.66028 3.81024 -3.51212 4.30225
201 1 4.62302 2.74512 0.957823 -5.36603 -0.176234 -4.01061
203 1 4.47507 1.01589 2.65348 -0.225438 -2.41984 -0.750469
205 1 6.1698 2.85901 2.60593 5.39572 -4.85981 -0.518668
207 1 6.35547 0.981229 0.766475 -3.6402 -0.538413 2.00571
208 1 5.41245 1.76074 1.75434 -0.21488 4.49554 -0.0260513
212 1 3.59141 1.84403 3.52068 1.68522 3.03572 -0.584011
214 1 5.40595 0.000810259 3.5634 -1.44462 3.97516 -0.418156
402 1 7.1106 0.159275 1.66028 3.81024 -3.51212 4.30225
401 1 8.19673 2.74512 0.957823 -5.36603 -0.176234 -4.01061
403 1 8.04878 1.01589 2.65348 -0.225438 -2.41984 -0.750469
405 1 9.74351 2.85901 2.60593 5.39572 -4.85981 -0.518668
407 1 9.92918 0.981229 0.766475 -3.6402 -0.538413 2.00571
408 1 8.98616 1.76074 1.75434 -0.21488 4.49554 -0.0260513
412 1 7.16512 1.84403 3.52068 1.68522 3.03572 -0.584011
414 1 8.97966 0.000810259 3.5634 -1.44462 3.97516 -0.418156
602 1 10.6843 0.159275 1.66028 3.81024 -3.51212 4.30225
601 1 11.7704 2.74512 0.957823 -5.36603 -0.176234 -4.01061
603 1 11.6225 1.01589 2.65348 -0.225438 -2.41984 -0.750469
605 1 13.3172 2.85901 2.60593 5.39572 -4.85981 -0.518668
607 1 13.5029 0.981229 0.766475 -3.6402 -0.538413 2.00571
608 1 12.5599 1.76074 1.75434 -0.21488 4.49554 -0.0260513
612 1 10.7388 1.84403 3.52068 1.68522 3.03572 -0.584011
614 1 12.5534 0.000810259 3.5634 -1.44462 3.97516 -0.418156
802 1 14.258 0.159275 1.66028 3.81024 -3.51212 4.30225
2 1 17.8317 0.159275 1.66028 3.81024 -3.51212 4.30225
801 1 15.3441 2.74512 0.957823 -5.36603 -0.176234 -4.01061
803 1 15.1962 1.01589 2.65348 -0.225438 -2.41984 -0.750469
805 1 16.8909 2.85901 2.60593 5.39572 -4.85981 -0.518668
807 1 17.0766 0.981229 0.766475 -3.6402 -0.538413 2.00571
808 1 16.1336 1.76074 1.75434 -0.21488 4.49554 -0.0260513
812 1 14.3125 1.84403 3.52068 1.68522 3.03572 -0.584011
814 1 16.1271 0.000810259 3.5634 -1.44462 3.97516 -0.418156
41 1 1.04931 6.31883 0.957823 -5.36603 -0.176234 -4.01061
43 1 0.901355 4.5896 2.65348 -0.225438 -2.41984 -0.750469
45 1 2.59609 6.43272 2.60593 5.39572 -4.85981 -0.518668
47 1 2.78176 4.55494 0.766475 -3.6402 -0.538413 2.00571
48 1 1.83874 5.33445 1.75434 -0.21488 4.49554 -0.0260513
52 1 0.017699 5.41774 3.52068 1.68522 3.03572 -0.584011
54 1 1.83224 3.57452 3.5634 -1.44462 3.97516 -0.418156
242 1 3.53689 3.73298 1.66028 3.81024 -3.51212 4.30225
241 1 4.62302 6.31883 0.957823 -5.36603 -0.176234 -4.01061
243 1 4.47507 4.5896 2.65348 -0.225438 -2.41984 -0.750469
245 1 6.1698 6.43272 2.60593 5.39572 -4.85981 -0.518668
247 1 6.35547 4.55494 0.766475 -3.6402 -0.538413 2.00571
248 1 5.41245 5.33445 1.75434 -0.21488 4.49554 -0.0260513
252 1 3.59141 5.41774 3.52068 1.68522 3.03572 -0.584011
254 1 5.40595 3.57452 3.5634 -1.44462 3.97516 -0.418156
442 1 7.1106 3.73298 1.66028 3.81024 -3.51212 4.30225
441 1 8.19673 6.31883 0.957823 -5.36603 -0.176234 -4.01061
443 1 8.04878 4.5896 2.65348 -0.225438 -2.41984 -0.750469
445 1 9.74351 6.43272 2.60593 5.39572 -4.85981 -0.518668
447 1 9.92918 4.55494 0.766475 -3.6402 -0.538413 2.00571
448 1 8.98616 5.33445 1.75434 -0.21488 4.49554 -0.0260513
452 1 7.16512 5.41774 3.52068 1.68522 3.03572 -0.584011
454 1 8.97966 3.57452 3.5634 -1.44462 3.97516 -0.418156
642 1 10.6843 3.73298 1.66028 3.81024 -3.51212 4.30225
641 1 11.7704 6.31883 0.957823 -5.36603 -0.176234 -4.01061
643 1 11.6225 4.5896 2.65348 -0.225438 -2.41984 -0.750469
645 1 13.3172 6.43272 2.60593 5.39572 -4.85981 -0.518668
647 1 13.5029 4.55494 0.766475 -3.6402 -0.538413 2.00571
648 1 12.5599 5.33445 1.75434 -0.21488 4.49554 -0.0260513
652 1 10.7388 5.41774 3.52068 1.68522 3.03572 -0.584011
654 1 12.5534 3.57452 3.5634 -1.44462 3.97516 -0.418156
842 1 14.258 3.73298 1.66028 3.81024 -3.51212 4.30225
42 1 17.8317 3.73298 1.66028 3.81024 -3.51212 4.30225
841 1 15.3441 6.31883 0.957823 -5.36603 -0.176234 -4.01061
843 1 15.1962 4.5896 2.65348 -0.225438 -2.41984 -0.750469
845 1 16.8909 6.43272 2.60593 5.39572 -4.85981 -0.518668
847 1 17.0766 4.55494 0.766475 -3.6402 -0.538413 2.00571
848 1 16.1336 5.33445 1.75434 -0.21488 4.49554 -0.0260513
852 1 14.3125 5.41774 3.52068 1.68522 3.03572 -0.584011
854 1 16.1271 3.57452 3.5634 -1.44462 3.97516 -0.418156
81 1 1.04931 9.89254 0.957823 -5.36603 -0.176234 -4.01061
83 1 0.901355 8.16331 2.65348 -0.225438 -2.41984 -0.750469
85 1 2.59609 10.0064 2.60593 5.39572 -4.85981 -0.518668
87 1 2.78176 8.12865 0.766475 -3.6402 -0.538413 2.00571
88 1 1.83874 8.90816 1.75434 -0.21488 4.49554 -0.0260513
92 1 0.017699 8.99145 3.52068 1.68522 3.03572 -0.584011
94 1 1.83224 7.14823 3.5634 -1.44462 3.97516 -0.418156
282 1 3.53689 7.30669 1.66028 3.81024 -3.51212 4.30225
281 1 4.62302 9.89254 0.957823 -5.36603 -0.176234 -4.01061
283 1 4.47507 8.16331 2.65348 -0.225438 -2.41984 -0.750469
285 1 6.1698 10.0064 2.60593 5.39572 -4.85981 -0.518668
287 1 6.35547 8.12865 0.766475 -3.6402 -0.538413 2.00571
288 1 5.41245 8.90816 1.75434 -0.21488 4.49554 -0.0260513
292 1 3.59141 8.99145 3.52068 1.68522 3.03572 -0.584011
294 1 5.40595 7.14823 3.5634 -1.44462 3.97516 -0.418156
482 1 7.1106 7.30669 1.66028 3.81024 -3.51212 4.30225
481 1 8.19673 9.89254 0.957823 -5.36603 -0.176234 -4.01061
483 1 8.04878 8.16331 2.65348 -0.225438 -2.41984 -0.750469
485 1 9.74351 10.0064 2.60593 5.39572 -4.85981 -0.518668
487 1 9.92918 8.12865 0.766475 -3.6402 -0.538413 2.00571
488 1 8.98616 8.90816 1.75434 -0.21488 4.49554 -0.0260513
492 1 7.16512 8.99145 3.52068 1.68522 3.03572 -0.584011
494 1 8.97966 7.14823 3.5634 -1.44462 3.97516 -0.418156
682 1 10.6843 7.30669 1.66028 3.81024 -3.51212 4.30225
681 1 11.7704 9.89254 0.957823 -5.36603 -0.176234 -4.01061
683 1 11.6225 8.16331 2.65348 -0.225438 -2.41984 -0.750469
685 1 13.3172 10.0064 2.60593 5.39572 -4.85981 -0.518668
687 1 13.5029 8.12865 0.766475 -3.6402 -0.538413 2.00571
688 1 12.5599 8.90816 1.75434 -0.21488 4.49554 -0.0260513
692 1 10.7388 8.99145 3.52068 1.68522 3.03572 -0.584011
694 1 12.5534 7.14823 3.5634 -1.44462 3.97516 -0.418156
882 1 14.258 7.30669 1.66028 3.81024 -3.51212 4.30225
82 1 17.8317 7.30669 1.66028 3.81024 -3.51212 4.30225
881 1 15.3441 9.89254 0.957823 -5.36603 -0.176234 -4.01061
883 1 15.1962 8.16331 2.65348 -0.225438 -2.41984 -0.750469
885 1 16.8909 10.0064 2.60593 5.39572 -4.85981 -0.518668
887 1 17.0766 8.12865 0.766475 -3.6402 -0.538413 2.00571
888 1 16.1336 8.90816 1.75434 -0.21488 4.49554 -0.0260513
892 1 14.3125 8.99145 3.52068 1.68522 3.03572 -0.584011
894 1 16.1271 7.14823 3.5634 -1.44462 3.97516 -0.418156
121 1 1.04931 13.4662 0.957823 -5.36603 -0.176234 -4.01061
123 1 0.901355 11.737 2.65348 -0.225438 -2.41984 -0.750469
125 1 2.59609 13.5801 2.60593 5.39572 -4.85981 -0.518668
127 1 2.78176 11.7024 0.766475 -3.6402 -0.538413 2.00571
128 1 1.83874 12.4819 1.75434 -0.21488 4.49554 -0.0260513
132 1 0.017699 12.5652 3.52068 1.68522 3.03572 -0.584011
134 1 1.83224 10.7219 3.5634 -1.44462 3.97516 -0.418156
322 1 3.53689 10.8804 1.66028 3.81024 -3.51212 4.30225
321 1 4.62302 13.4662 0.957823 -5.36603 -0.176234 -4.01061
323 1 4.47507 11.737 2.65348 -0.225438 -2.41984 -0.750469
325 1 6.1698 13.5801 2.60593 5.39572 -4.85981 -0.518668
327 1 6.35547 11.7024 0.766475 -3.6402 -0.538413 2.00571
328 1 5.41245 12.4819 1.75434 -0.21488 4.49554 -0.0260513
332 1 3.59141 12.5652 3.52068 1.68522 3.03572 -0.584011
334 1 5.40595 10.7219 3.5634 -1.44462 3.97516 -0.418156
522 1 7.1106 10.8804 1.66028 3.81024 -3.51212 4.30225
521 1 8.19673 13.4662 0.957823 -5.36603 -0.176234 -4.01061
523 1 8.04878 11.737 2.65348 -0.225438 -2.41984 -0.750469
525 1 9.74351 13.5801 2.60593 5.39572 -4.85981 -0.518668
527 1 9.92918 11.7024 0.766475 -3.6402 -0.538413 2.00571
528 1 8.98616 12.4819 1.75434 -0.21488 4.49554 -0.0260513
532 1 7.16512 12.5652 3.52068 1.68522 3.03572 -0.584011
534 1 8.97966 10.7219 3.5634 -1.44462 3.97516 -0.418156
722 1 10.6843 10.8804 1.66028 3.81024 -3.51212 4.30225
721 1 11.7704 13.4662 0.957823 -5.36603 -0.176234 -4.01061
723 1 11.6225 11.737 2.65348 -0.225438 -2.41984 -0.750469
725 1 13.3172 13.5801 2.60593 5.39572 -4.85981 -0.518668
727 1 13.5029 11.7024 0.766475 -3.6402 -0.538413 2.00571
728 1 12.5599 12.4819 1.75434 -0.21488 4.49554 -0.0260513
732 1 10.7388 12.5652 3.52068 1.68522 3.03572 -0.584011
734 1 12.5534 10.7219 3.5634 -1.44462 3.97516 -0.418156
922 1 14.258 10.8804 1.66028 3.81024 -3.51212 4.30225
122 1 17.8317 10.8804 1.66028 3.81024 -3.51212 4.30225
921 1 15.3441 13.4662 0.957823 -5.36603 -0.176234 -4.01061
923 1 15.1962 11.737 2.65348 -0.225438 -2.41984 -0.750469
925 1 16.8909 13.5801 2.60593 5.39572 -4.85981 -0.518668
927 1 17.0766 11.7024 0.766475 -3.6402 -0.538413 2.00571
928 1 16.1336 12.4819 1.75434 -0.21488 4.49554 -0.0260513
932 1 14.3125 12.5652 3.52068 1.68522 3.03572 -0.584011
934 1 16.1271 10.7219 3.5634 -1.44462 3.97516 -0.418156
161 1 1.04931 17.04 0.957823 -5.36603 -0.176234 -4.01061
163 1 0.901355 15.3107 2.65348 -0.225438 -2.41984 -0.750469
165 1 2.59609 17.1538 2.60593 5.39572 -4.85981 -0.518668
167 1 2.78176 15.2761 0.766475 -3.6402 -0.538413 2.00571
168 1 1.83874 16.0556 1.75434 -0.21488 4.49554 -0.0260513
172 1 0.017699 16.1389 3.52068 1.68522 3.03572 -0.584011
174 1 1.83224 14.2957 3.5634 -1.44462 3.97516 -0.418156
362 1 3.53689 14.4541 1.66028 3.81024 -3.51212 4.30225
361 1 4.62302 17.04 0.957823 -5.36603 -0.176234 -4.01061
363 1 4.47507 15.3107 2.65348 -0.225438 -2.41984 -0.750469
365 1 6.1698 17.1538 2.60593 5.39572 -4.85981 -0.518668
367 1 6.35547 15.2761 0.766475 -3.6402 -0.538413 2.00571
368 1 5.41245 16.0556 1.75434 -0.21488 4.49554 -0.0260513
372 1 3.59141 16.1389 3.52068 1.68522 3.03572 -0.584011
374 1 5.40595 14.2957 3.5634 -1.44462 3.97516 -0.418156
562 1 7.1106 14.4541 1.66028 3.81024 -3.51212 4.30225
561 1 8.19673 17.04 0.957823 -5.36603 -0.176234 -4.01061
563 1 8.04878 15.3107 2.65348 -0.225438 -2.41984 -0.750469
565 1 9.74351 17.1538 2.60593 5.39572 -4.85981 -0.518668
567 1 9.92918 15.2761 0.766475 -3.6402 -0.538413 2.00571
568 1 8.98616 16.0556 1.75434 -0.21488 4.49554 -0.0260513
572 1 7.16512 16.1389 3.52068 1.68522 3.03572 -0.584011
574 1 8.97966 14.2957 3.5634 -1.44462 3.97516 -0.418156
762 1 10.6843 14.4541 1.66028 3.81024 -3.51212 4.30225
761 1 11.7704 17.04 0.957823 -5.36603 -0.176234 -4.01061
763 1 11.6225 15.3107 2.65348 -0.225438 -2.41984 -0.750469
765 1 13.3172 17.1538 2.60593 5.39572 -4.85981 -0.518668
767 1 13.5029 15.2761 0.766475 -3.6402 -0.538413 2.00571
768 1 12.5599 16.0556 1.75434 -0.21488 4.49554 -0.0260513
772 1 10.7388 16.1389 3.52068 1.68522 3.03572 -0.584011
774 1 12.5534 14.2957 3.5634 -1.44462 3.97516 -0.418156
962 1 14.258 14.4541 1.66028 3.81024 -3.51212 4.30225
162 1 17.8317 14.4541 1.66028 3.81024 -3.51212 4.30225
961 1 15.3441 17.04 0.957823 -5.36603 -0.176234 -4.01061
963 1 15.1962 15.3107 2.65348 -0.225438 -2.41984 -0.750469
965 1 16.8909 17.1538 2.60593 5.39572 -4.85981 -0.518668
967 1 17.0766 15.2761 0.766475 -3.6402 -0.538413 2.00571
968 1 16.1336 16.0556 1.75434 -0.21488 4.49554 -0.0260513
972 1 14.3125 16.1389 3.52068 1.68522 3.03572 -0.584011
974 1 16.1271 14.2957 3.5634 -1.44462 3.97516 -0.418156
9 1 1.04931 2.74512 4.53153 -5.36603 -0.176234 -4.01061
11 1 0.901355 1.01589 6.22719 -0.225438 -2.41984 -0.750469
13 1 2.59609 2.85901 6.17964 5.39572 -4.85981 -0.518668
15 1 2.78176 0.981229 4.34018 -3.6402 -0.538413 2.00571
16 1 1.83874 1.76074 5.32805 -0.21488 4.49554 -0.0260513
20 1 0.017699 1.84403 7.09439 1.68522 3.03572 -0.584011
22 1 1.83224 0.000810259 7.13711 -1.44462 3.97516 -0.418156
210 1 3.53689 0.159275 5.23399 3.81024 -3.51212 4.30225
209 1 4.62302 2.74512 4.53153 -5.36603 -0.176234 -4.01061
211 1 4.47507 1.01589 6.22719 -0.225438 -2.41984 -0.750469
213 1 6.1698 2.85901 6.17964 5.39572 -4.85981 -0.518668
215 1 6.35547 0.981229 4.34018 -3.6402 -0.538413 2.00571
216 1 5.41245 1.76074 5.32805 -0.21488 4.49554 -0.0260513
220 1 3.59141 1.84403 7.09439 1.68522 3.03572 -0.584011
222 1 5.40595 0.000810259 7.13711 -1.44462 3.97516 -0.418156
410 1 7.1106 0.159275 5.23399 3.81024 -3.51212 4.30225
409 1 8.19673 2.74512 4.53153 -5.36603 -0.176234 -4.01061
411 1 8.04878 1.01589 6.22719 -0.225438 -2.41984 -0.750469
413 1 9.74351 2.85901 6.17964 5.39572 -4.85981 -0.518668
415 1 9.92918 0.981229 4.34018 -3.6402 -0.538413 2.00571
416 1 8.98616 1.76074 5.32805 -0.21488 4.49554 -0.0260513
420 1 7.16512 1.84403 7.09439 1.68522 3.03572 -0.584011
422 1 8.97966 0.000810259 7.13711 -1.44462 3.97516 -0.418156
610 1 10.6843 0.159275 5.23399 3.81024 -3.51212 4.30225
609 1 11.7704 2.74512 4.53153 -5.36603 -0.176234 -4.01061
611 1 11.6225 1.01589 6.22719 -0.225438 -2.41984 -0.750469
613 1 13.3172 2.85901 6.17964 5.39572 -4.85981 -0.518668
615 1 13.5029 0.981229 4.34018 -3.6402 -0.538413 2.00571
616 1 12.5599 1.76074 5.32805 -0.21488 4.49554 -0.0260513
620 1 10.7388 1.84403 7.09439 1.68522 3.03572 -0.584011
622 1 12.5534 0.000810259 7.13711 -1.44462 3.97516 -0.418156
810 1 14.258 0.159275 5.23399 3.81024 -3.51212 4.30225
10 1 17.8317 0.159275 5.23399 3.81024 -3.51212 4.30225
809 1 15.3441 2.74512 4.53153 -5.36603 -0.176234 -4.01061
811 1 15.1962 1.01589 6.22719 -0.225438 -2.41984 -0.750469
813 1 16.8909 2.85901 6.17964 5.39572 -4.85981 -0.518668
815 1 17.0766 0.981229 4.34018 -3.6402 -0.538413 2.00571
816 1 16.1336 1.76074 5.32805 -0.21488 4.49554 -0.0260513
820 1 14.3125 1.84403 7.09439 1.68522 3.03572 -0.584011
822 1 16.1271 0.000810259 7.13711 -1.44462 3.97516 -0.418156
49 1 1.04931 6.31883 4.53153 -5.36603 -0.176234 -4.01061
51 1 0.901355 4.5896 6.22719 -0.225438 -2.41984 -0.750469
53 1 2.59609 6.43272 6.17964 5.39572 -4.85981 -0.518668
55 1 2.78176 4.55494 4.34018 -3.6402 -0.538413 2.00571
56 1 1.83874 5.33445 5.32805 -0.21488 4.49554 -0.0260513
60 1 0.017699 5.41774 7.09439 1.68522 3.03572 -0.584011
62 1 1.83224 3.57452 7.13711 -1.44462 3.97516 -0.418156
250 1 3.53689 3.73298 5.23399 3.81024 -3.51212 4.30225
249 1 4.62302 6.31883 4.53153 -5.36603 -0.176234 -4.01061
251 1 4.47507 4.5896 6.22719 -0.225438 -2.41984 -0.750469
253 1 6.1698 6.43272 6.17964 5.39572 -4.85981 -0.518668
255 1 6.35547 4.55494 4.34018 -3.6402 -0.538413 2.00571
256 1 5.41245 5.33445 5.32805 -0.21488 4.49554 -0.0260513
260 1 3.59141 5.41774 7.09439 1.68522 3.03572 -0.584011
262 1 5.40595 3.57452 7.13711 -1.44462 3.97516 -0.418156
450 1 7.1106 3.73298 5.23399 3.81024 -3.51212 4.30225
449 1 8.19673 6.31883 4.53153 -5.36603 -0.176234 -4.01061
451 1 8.04878 4.5896 6.22719 -0.225438 -2.41984 -0.750469
453 1 9.74351 6.43272 6.17964 5.39572 -4.85981 -0.518668
455 1 9.92918 4.55494 4.34018 -3.6402 -0.538413 2.00571
456 1 8.98616 5.33445 5.32805 -0.21488 4.49554 -0.0260513
460 1 7.16512 5.41774 7.09439 1.68522 3.03572 -0.584011
462 1 8.97966 3.57452 7.13711 -1.44462 3.97516 -0.418156
650 1 10.6843 3.73298 5.23399 3.81024 -3.51212 4.30225
649 1 11.7704 6.31883 4.53153 -5.36603 -0.176234 -4.01061
651 1 11.6225 4.5896 6.22719 -0.225438 -2.41984 -0.750469
653 1 13.3172 6.43272 6.17964 5.39572 -4.85981 -0.518668
655 1 13.5029 4.55494 4.34018 -3.6402 -0.538413 2.00571
656 1 12.5599 5.33445 5.32805 -0.21488 4.49554 -0.0260513
660 1 10.7388 5.41774 7.09439 1.68522 3.03572 -0.584011
662 1 12.5534 3.57452 7.13711 -1.44462 3.97516 -0.418156
850 1 14.258 3.73298 5.23399 3.81024 -3.51212 4.30225
50 1 17.8317 3.73298 5.23399 3.81024 -3.51212 4.30225
849 1 15.3441 6.31883 4.53153 -5.36603 -0.176234 -4.01061
851 1 15.1962 4.5896 6.22719 -0.225438 -2.41984 -0.750469
853 1 16.8909 6.43272 6.17964 5.39572 -4.85981 -0.518668
855 1 17.0766 4.55494 4.34018 -3.6402 -0.538413 2.00571
856 1 16.1336 5.33445 5.32805 -0.21488 4.49554 -0.0260513
860 1 14.3125 5.41774 7.09439 1.68522 3.03572 -0.584011
862 1 16.1271 3.57452 7.13711 -1.44462 3.97516 -0.418156
89 1 1.04931 9.89254 4.53153 -5.36603 -0.176234 -4.01061
91 1 0.901355 8.16331 6.22719 -0.225438 -2.41984 -0.750469
93 1 2.59609 10.0064 6.17964 5.39572 -4.85981 -0.518668
95 1 2.78176 8.12865 4.34018 -3.6402 -0.538413 2.00571
96 1 1.83874 8.90816 5.32805 -0.21488 4.49554 -0.0260513
100 1 0.017699 8.99145 7.09439 1.68522 3.03572 -0.584011
102 1 1.83224 7.14823 7.13711 -1.44462 3.97516 -0.418156
290 1 3.53689 7.30669 5.23399 3.81024 -3.51212 4.30225
289 1 4.62302 9.89254 4.53153 -5.36603 -0.176234 -4.01061
291 1 4.47507 8.16331 6.22719 -0.225438 -2.41984 -0.750469
293 1 6.1698 10.0064 6.17964 5.39572 -4.85981 -0.518668
295 1 6.35547 8.12865 4.34018 -3.6402 -0.538413 2.00571
296 1 5.41245 8.90816 5.32805 -0.21488 4.49554 -0.0260513
300 1 3.59141 8.99145 7.09439 1.68522 3.03572 -0.584011
302 1 5.40595 7.14823 7.13711 -1.44462 3.97516 -0.418156
490 1 7.1106 7.30669 5.23399 3.81024 -3.51212 4.30225
489 1 8.19673 9.89254 4.53153 -5.36603 -0.176234 -4.01061
491 1 8.04878 8.16331 6.22719 -0.225438 -2.41984 -0.750469
493 1 9.74351 10.0064 6.17964 5.39572 -4.85981 -0.518668
495 1 9.92918 8.12865 4.34018 -3.6402 -0.538413 2.00571
496 1 8.98616 8.90816 5.32805 -0.21488 4.49554 -0.0260513
500 1 7.16512 8.99145 7.09439 1.68522 3.03572 -0.584011
502 1 8.97966 7.14823 7.13711 -1.44462 3.97516 -0.418156
690 1 10.6843 7.30669 5.23399 3.81024 -3.51212 4.30225
689 1 11.7704 9.89254 4.53153 -5.36603 -0.176234 -4.01061
691 1 11.6225 8.16331 6.22719 -0.225438 -2.41984 -0.750469
693 1 13.3172 10.0064 6.17964 5.39572 -4.85981 -0.518668
695 1 13.5029 8.12865 4.34018 -3.6402 -0.538413 2.00571
696 1 12.5599 8.90816 5.32805 -0.21488 4.49554 -0.0260513
700 1 10.7388 8.99145 7.09439 1.68522 3.03572 -0.584011
702 1 12.5534 7.14823 7.13711 -1.44462 3.97516 -0.418156
890 1 14.258 7.30669 5.23399 3.81024 -3.51212 4.30225
90 1 17.8317 7.30669 5.23399 3.81024 -3.51212 4.30225
889 1 15.3441 9.89254 4.53153 -5.36603 -0.176234 -4.01061
891 1 15.1962 8.16331 6.22719 -0.225438 -2.41984 -0.750469
893 1 16.8909 10.0064 6.17964 5.39572 -4.85981 -0.518668
895 1 17.0766 8.12865 4.34018 -3.6402 -0.538413 2.00571
896 1 16.1336 8.90816 5.32805 -0.21488 4.49554 -0.0260513
900 1 14.3125 8.99145 7.09439 1.68522 3.03572 -0.584011
902 1 16.1271 7.14823 7.13711 -1.44462 3.97516 -0.418156
129 1 1.04931 13.4662 4.53153 -5.36603 -0.176234 -4.01061
131 1 0.901355 11.737 6.22719 -0.225438 -2.41984 -0.750469
133 1 2.59609 13.5801 6.17964 5.39572 -4.85981 -0.518668
135 1 2.78176 11.7024 4.34018 -3.6402 -0.538413 2.00571
136 1 1.83874 12.4819 5.32805 -0.21488 4.49554 -0.0260513
140 1 0.017699 12.5652 7.09439 1.68522 3.03572 -0.584011
142 1 1.83224 10.7219 7.13711 -1.44462 3.97516 -0.418156
330 1 3.53689 10.8804 5.23399 3.81024 -3.51212 4.30225
329 1 4.62302 13.4662 4.53153 -5.36603 -0.176234 -4.01061
331 1 4.47507 11.737 6.22719 -0.225438 -2.41984 -0.750469
333 1 6.1698 13.5801 6.17964 5.39572 -4.85981 -0.518668
335 1 6.35547 11.7024 4.34018 -3.6402 -0.538413 2.00571
336 1 5.41245 12.4819 5.32805 -0.21488 4.49554 -0.0260513
340 1 3.59141 12.5652 7.09439 1.68522 3.03572 -0.584011
342 1 5.40595 10.7219 7.13711 -1.44462 3.97516 -0.418156
530 1 7.1106 10.8804 5.23399 3.81024 -3.51212 4.30225
529 1 8.19673 13.4662 4.53153 -5.36603 -0.176234 -4.01061
531 1 8.04878 11.737 6.22719 -0.225438 -2.41984 -0.750469
533 1 9.74351 13.5801 6.17964 5.39572 -4.85981 -0.518668
535 1 9.92918 11.7024 4.34018 -3.6402 -0.538413 2.00571
536 1 8.98616 12.4819 5.32805 -0.21488 4.49554 -0.0260513
540 1 7.16512 12.5652 7.09439 1.68522 3.03572 -0.584011
542 1 8.97966 10.7219 7.13711 -1.44462 3.97516 -0.418156
730 1 10.6843 10.8804 5.23399 3.81024 -3.51212 4.30225
729 1 11.7704 13.4662 4.53153 -5.36603 -0.176234 -4.01061
731 1 11.6225 11.737 6.22719 -0.225438 -2.41984 -0.750469
733 1 13.3172 13.5801 6.17964 5.39572 -4.85981 -0.518668
735 1 13.5029 11.7024 4.34018 -3.6402 -0.538413 2.00571
736 1 12.5599 12.4819 5.32805 -0.21488 4.49554 -0.0260513
740 1 10.7388 12.5652 7.09439 1.68522 3.03572 -0.584011
742 1 12.5534 10.7219 7.13711 -1.44462 3.97516 -0.418156
930 1 14.258 10.8804 5.23399 3.81024 -3.51212 4.30225
130 1 17.8317 10.8804 5.23399 3.81024 -3.51212 4.30225
929 1 15.3441 13.4662 4.53153 -5.36603 -0.176234 -4.01061
931 1 15.1962 11.737 6.22719 -0.225438 -2.41984 -0.750469
933 1 16.8909 13.5801 6.17964 5.39572 -4.85981 -0.518668
935 1 17.0766 11.7024 4.34018 -3.6402 -0.538413 2.00571
936 1 16.1336 12.4819 5.32805 -0.21488 4.49554 -0.0260513
940 1 14.3125 12.5652 7.09439 1.68522 3.03572 -0.584011
942 1 16.1271 10.7219 7.13711 -1.44462 3.97516 -0.418156
169 1 1.04931 17.04 4.53153 -5.36603 -0.176234 -4.01061
171 1 0.901355 15.3107 6.22719 -0.225438 -2.41984 -0.750469
173 1 2.59609 17.1538 6.17964 5.39572 -4.85981 -0.518668
175 1 2.78176 15.2761 4.34018 -3.6402 -0.538413 2.00571
176 1 1.83874 16.0556 5.32805 -0.21488 4.49554 -0.0260513
180 1 0.017699 16.1389 7.09439 1.68522 3.03572 -0.584011
182 1 1.83224 14.2957 7.13711 -1.44462 3.97516 -0.418156
370 1 3.53689 14.4541 5.23399 3.81024 -3.51212 4.30225
369 1 4.62302 17.04 4.53153 -5.36603 -0.176234 -4.01061
371 1 4.47507 15.3107 6.22719 -0.225438 -2.41984 -0.750469
373 1 6.1698 17.1538 6.17964 5.39572 -4.85981 -0.518668
375 1 6.35547 15.2761 4.34018 -3.6402 -0.538413 2.00571
376 1 5.41245 16.0556 5.32805 -0.21488 4.49554 -0.0260513
380 1 3.59141 16.1389 7.09439 1.68522 3.03572 -0.584011
382 1 5.40595 14.2957 7.13711 -1.44462 3.97516 -0.418156
570 1 7.1106 14.4541 5.23399 3.81024 -3.51212 4.30225
569 1 8.19673 17.04 4.53153 -5.36603 -0.176234 -4.01061
571 1 8.04878 15.3107 6.22719 -0.225438 -2.41984 -0.750469
573 1 9.74351 17.1538 6.17964 5.39572 -4.85981 -0.518668
575 1 9.92918 15.2761 4.34018 -3.6402 -0.538413 2.00571
576 1 8.98616 16.0556 5.32805 -0.21488 4.49554 -0.0260513
580 1 7.16512 16.1389 7.09439 1.68522 3.03572 -0.584011
582 1 8.97966 14.2957 7.13711 -1.44462 3.97516 -0.418156
770 1 10.6843 14.4541 5.23399 3.81024 -3.51212 4.30225
769 1 11.7704 17.04 4.53153 -5.36603 -0.176234 -4.01061
771 1 11.6225 15.3107 6.22719 -0.225438 -2.41984 -0.750469
773 1 13.3172 17.1538 6.17964 5.39572 -4.85981 -0.518668
775 1 13.5029 15.2761 4.34018 -3.6402 -0.538413 2.00571
776 1 12.5599 16.0556 5.32805 -0.21488 4.49554 -0.0260513
780 1 10.7388 16.1389 7.09439 1.68522 3.03572 -0.584011
782 1 12.5534 14.2957 7.13711 -1.44462 3.97516 -0.418156
970 1 14.258 14.4541 5.23399 3.81024 -3.51212 4.30225
170 1 17.8317 14.4541 5.23399 3.81024 -3.51212 4.30225
969 1 15.3441 17.04 4.53153 -5.36603 -0.176234 -4.01061
971 1 15.1962 15.3107 6.22719 -0.225438 -2.41984 -0.750469
973 1 16.8909 17.1538 6.17964 5.39572 -4.85981 -0.518668
975 1 17.0766 15.2761 4.34018 -3.6402 -0.538413 2.00571
976 1 16.1336 16.0556 5.32805 -0.21488 4.49554 -0.0260513
980 1 14.3125 16.1389 7.09439 1.68522 3.03572 -0.584011
982 1 16.1271 14.2957 7.13711 -1.44462 3.97516 -0.418156
17 1 1.04931 2.74512 8.10524 -5.36603 -0.176234 -4.01061
19 1 0.901355 1.01589 9.8009 -0.225438 -2.41984 -0.750469
21 1 2.59609 2.85901 9.75335 5.39572 -4.85981 -0.518668
23 1 2.78176 0.981229 7.91389 -3.6402 -0.538413 2.00571
24 1 1.83874 1.76074 8.90176 -0.21488 4.49554 -0.0260513
28 1 0.017699 1.84403 10.6681 1.68522 3.03572 -0.584011
30 1 1.83224 0.000810259 10.7108 -1.44462 3.97516 -0.418156
218 1 3.53689 0.159275 8.8077 3.81024 -3.51212 4.30225
217 1 4.62302 2.74512 8.10524 -5.36603 -0.176234 -4.01061
219 1 4.47507 1.01589 9.8009 -0.225438 -2.41984 -0.750469
221 1 6.1698 2.85901 9.75335 5.39572 -4.85981 -0.518668
223 1 6.35547 0.981229 7.91389 -3.6402 -0.538413 2.00571
224 1 5.41245 1.76074 8.90176 -0.21488 4.49554 -0.0260513
228 1 3.59141 1.84403 10.6681 1.68522 3.03572 -0.584011
230 1 5.40595 0.000810259 10.7108 -1.44462 3.97516 -0.418156
418 1 7.1106 0.159275 8.8077 3.81024 -3.51212 4.30225
417 1 8.19673 2.74512 8.10524 -5.36603 -0.176234 -4.01061
419 1 8.04878 1.01589 9.8009 -0.225438 -2.41984 -0.750469
421 1 9.74351 2.85901 9.75335 5.39572 -4.85981 -0.518668
423 1 9.92918 0.981229 7.91389 -3.6402 -0.538413 2.00571
424 1 8.98616 1.76074 8.90176 -0.21488 4.49554 -0.0260513
428 1 7.16512 1.84403 10.6681 1.68522 3.03572 -0.584011
430 1 8.97966 0.000810259 10.7108 -1.44462 3.97516 -0.418156
618 1 10.6843 0.159275 8.8077 3.81024 -3.51212 4.30225
617 1 11.7704 2.74512 8.10524 -5.36603 -0.176234 -4.01061
619 1 11.6225 1.01589 9.8009 -0.225438 -2.41984 -0.750469
621 1 13.3172 2.85901 9.75335 5.39572 -4.85981 -0.518668
623 1 13.5029 0.981229 7.91389 -3.6402 -0.538413 2.00571
624 1 12.5599 1.76074 8.90176 -0.21488 4.49554 -0.0260513
628 1 10.7388 1.84403 10.6681 1.68522 3.03572 -0.584011
630 1 12.5534 0.000810259 10.7108 -1.44462 3.97516 -0.418156
818 1 14.258 0.159275 8.8077 3.81024 -3.51212 4.30225
18 1 17.8317 0.159275 8.8077 3.81024 -3.51212 4.30225
817 1 15.3441 2.74512 8.10524 -5.36603 -0.176234 -4.01061
819 1 15.1962 1.01589 9.8009 -0.225438 -2.41984 -0.750469
821 1 16.8909 2.85901 9.75335 5.39572 -4.85981 -0.518668
823 1 17.0766 0.981229 7.91389 -3.6402 -0.538413 2.00571
824 1 16.1336 1.76074 8.90176 -0.21488 4.49554 -0.0260513
828 1 14.3125 1.84403 10.6681 1.68522 3.03572 -0.584011
830 1 16.1271 0.000810259 10.7108 -1.44462 3.97516 -0.418156
57 1 1.04931 6.31883 8.10524 -5.36603 -0.176234 -4.01061
59 1 0.901355 4.5896 9.8009 -0.225438 -2.41984 -0.750469
61 1 2.59609 6.43272 9.75335 5.39572 -4.85981 -0.518668
63 1 2.78176 4.55494 7.91389 -3.6402 -0.538413 2.00571
64 1 1.83874 5.33445 8.90176 -0.21488 4.49554 -0.0260513
68 1 0.017699 5.41774 10.6681 1.68522 3.03572 -0.584011
70 1 1.83224 3.57452 10.7108 -1.44462 3.97516 -0.418156
258 1 3.53689 3.73298 8.8077 3.81024 -3.51212 4.30225
257 1 4.62302 6.31883 8.10524 -5.36603 -0.176234 -4.01061
259 1 4.47507 4.5896 9.8009 -0.225438 -2.41984 -0.750469
261 1 6.1698 6.43272 9.75335 5.39572 -4.85981 -0.518668
263 1 6.35547 4.55494 7.91389 -3.6402 -0.538413 2.00571
264 1 5.41245 5.33445 8.90176 -0.21488 4.49554 -0.0260513
268 1 3.59141 5.41774 10.6681 1.68522 3.03572 -0.584011
270 1 5.40595 3.57452 10.7108 -1.44462 3.97516 -0.418156
458 1 7.1106 3.73298 8.8077 3.81024 -3.51212 4.30225
457 1 8.19673 6.31883 8.10524 -5.36603 -0.176234 -4.01061
459 1 8.04878 4.5896 9.8009 -0.225438 -2.41984 -0.750469
461 1 9.74351 6.43272 9.75335 5.39572 -4.85981 -0.518668
463 1 9.92918 4.55494 7.91389 -3.6402 -0.538413 2.00571
464 1 8.98616 5.33445 8.90176 -0.21488 4.49554 -0.0260513
468 1 7.16512 5.41774 10.6681 1.68522 3.03572 -0.584011
470 1 8.97966 3.57452 10.7108 -1.44462 3.97516 -0.418156
658 1 10.6843 3.73298 8.8077 3.81024 -3.51212 4.30225
657 1 11.7704 6.31883 8.10524 -5.36603 -0.176234 -4.01061
659 1 11.6225 4.5896 9.8009 -0.225438 -2.41984 -0.750469
661 1 13.3172 6.43272 9.75335 5.39572 -4.85981 -0.518668
663 1 13.5029 4.55494 7.91389 -3.6402 -0.538413 2.00571
664 1 12.5599 5.33445 8.90176 -0.21488 4.49554 -0.0260513
668 1 10.7388 5.41774 10.6681 1.68522 3.03572 -0.584011
670 1 12.5534 3.57452 10.7108 -1.44462 3.97516 -0.418156
858 1 14.258 3.73298 8.8077 3.81024 -3.51212 4.30225
58 1 17.8317 3.73298 8.8077 3.81024 -3.51212 4.30225
857 1 15.3441 6.31883 8.10524 -5.36603 -0.176234 -4.01061
859 1 15.1962 4.5896 9.8009 -0.225438 -2.41984 -0.750469
861 1 16.8909 6.43272 9.75335 5.39572 -4.85981 -0.518668
863 1 17.0766 4.55494 7.91389 -3.6402 -0.538413 2.00571
864 1 16.1336 5.33445 8.90176 -0.21488 4.49554 -0.0260513
868 1 14.3125 5.41774 10.6681 1.68522 3.03572 -0.584011
870 1 16.1271 3.57452 10.7108 -1.44462 3.97516 -0.418156
97 1 1.04931 9.89254 8.10524 -5.36603 -0.176234 -4.01061
99 1 0.901355 8.16331 9.8009 -0.225438 -2.41984 -0.750469
101 1 2.59609 10.0064 9.75335 5.39572 -4.85981 -0.518668
103 1 2.78176 8.12865 7.91389 -3.6402 -0.538413 2.00571
104 1 1.83874 8.90816 8.90176 -0.21488 4.49554 -0.0260513
108 1 0.017699 8.99145 10.6681 1.68522 3.03572 -0.584011
110 1 1.83224 7.14823 10.7108 -1.44462 3.97516 -0.418156
298 1 3.53689 7.30669 8.8077 3.81024 -3.51212 4.30225
297 1 4.62302 9.89254 8.10524 -5.36603 -0.176234 -4.01061
299 1 4.47507 8.16331 9.8009 -0.225438 -2.41984 -0.750469
301 1 6.1698 10.0064 9.75335 5.39572 -4.85981 -0.518668
303 1 6.35547 8.12865 7.91389 -3.6402 -0.538413 2.00571
304 1 5.41245 8.90816 8.90176 -0.21488 4.49554 -0.0260513
308 1 3.59141 8.99145 10.6681 1.68522 3.03572 -0.584011
310 1 5.40595 7.14823 10.7108 -1.44462 3.97516 -0.418156
498 1 7.1106 7.30669 8.8077 3.81024 -3.51212 4.30225
497 1 8.19673 9.89254 8.10524 -5.36603 -0.176234 -4.01061
499 1 8.04878 8.16331 9.8009 -0.225438 -2.41984 -0.750469
501 1 9.74351 10.0064 9.75335 5.39572 -4.85981 -0.518668
503 1 9.92918 8.12865 7.91389 -3.6402 -0.538413 2.00571
504 1 8.98616 8.90816 8.90176 -0.21488 4.49554 -0.0260513
508 1 7.16512 8.99145 10.6681 1.68522 3.03572 -0.584011
510 1 8.97966 7.14823 10.7108 -1.44462 3.97516 -0.418156
698 1 10.6843 7.30669 8.8077 3.81024 -3.51212 4.30225
697 1 11.7704 9.89254 8.10524 -5.36603 -0.176234 -4.01061
699 1 11.6225 8.16331 9.8009 -0.225438 -2.41984 -0.750469
701 1 13.3172 10.0064 9.75335 5.39572 -4.85981 -0.518668
703 1 13.5029 8.12865 7.91389 -3.6402 -0.538413 2.00571
704 1 12.5599 8.90816 8.90176 -0.21488 4.49554 -0.0260513
708 1 10.7388 8.99145 10.6681 1.68522 3.03572 -0.584011
710 1 12.5534 7.14823 10.7108 -1.44462 3.97516 -0.418156
898 1 14.258 7.30669 8.8077 3.81024 -3.51212 4.30225
98 1 17.8317 7.30669 8.8077 3.81024 -3.51212 4.30225
897 1 15.3441 9.89254 8.10524 -5.36603 -0.176234 -4.01061
899 1 15.1962 8.16331 9.8009 -0.225438 -2.41984 -0.750469
901 1 16.8909 10.0064 9.75335 5.39572 -4.85981 -0.518668
903 1 17.0766 8.12865 7.91389 -3.6402 -0.538413 2.00571
904 1 16.1336 8.90816 8.90176 -0.21488 4.49554 -0.0260513
908 1 14.3125 8.99145 10.6681 1.68522 3.03572 -0.584011
910 1 16.1271 7.14823 10.7108 -1.44462 3.97516 -0.418156
137 1 1.04931 13.4662 8.10524 -5.36603 -0.176234 -4.01061
139 1 0.901355 11.737 9.8009 -0.225438 -2.41984 -0.750469