4
Lattice="2.466335297 0.000000000 0.000000000 -1.233173441 2.135890810 0.000000000 0.000000000 0.000000000 30.000000000" energy=-36.68915207 virial="-0.12498 0.00000 -0.00000 0.00000 -0.12498 0.00000 -0.00000 0.00000 3.86320" pbc="T T T" Properties=species:S:1:pos:R:3:forces:R:3
C	      1.23316      0.71197     13.72992        -0.000000      0.000000     -0.900902
C	      0.00000      0.00000     16.26986        -0.000000      0.000000      0.650557
C	     -0.00001      1.42393     16.27008         0.000000     -0.000000      0.900902
C	      0.00000      0.00000     13.73014         0.000000     -0.000000     -0.650557
4
Lattice="2.466335297 0.000000000 0.000000000 -1.233173441 2.135890810 0.000000000 0.000000000 0.000000000 30.000000000" energy=-37.05320330 virial="-0.07189 0.00000 0.00000 0.00000 -0.07189 -0.00000 0.00000 -0.00000 1.10921" pbc="T T T" Properties=species:S:1:pos:R:3:forces:R:3
C	      1.23316      0.71197     13.52158         0.000000     -0.000000     -0.225140
C	      0.00000      0.00000     16.47819         0.000000      0.000000      0.175277
C	     -0.00001      1.42393     16.47842        -0.000000      0.000000      0.225140
C	      0.00000      0.00000     13.52181         0.000000      0.000000     -0.175277
4
Lattice="2.466335297 0.000000000 0.000000000 -1.233173441 2.135890810 0.000000000 0.000000000 0.000000000 30.000000000" energy=-37.12938237 virial="-0.01053 0.00000 0.00000 0.00000 -0.01053 -0.00000 0.00000 -0.00000 0.07333" pbc="T T T" Properties=species:S:1:pos:R:3:forces:R:3
C	      1.23316      0.71197     13.31325         0.000000     -0.000000     -0.024847
C	      0.00000      0.00000     16.68653         0.000000     -0.000000      0.019128
C	     -0.00001      1.42393     16.68675        -0.000000     -0.000000      0.024847
C	      0.00000      0.00000     13.31347        -0.000000      0.000000     -0.019128
4
Lattice="2.466335297 0.000000000 0.000000000 -1.233173441 2.135890810 0.000000000 0.000000000 0.000000000 30.000000000" energy=-37.12690118 virial="0.02195 -0.00000 -0.00000 -0.00000 0.02195 0.00000 -0.00000 0.00000 -0.21157" pbc="T T T" Properties=species:S:1:pos:R:3:forces:R:3
C	      1.23316      0.71197     13.10492         0.000000     -0.000000      0.018830
C	      0.00000      0.00000     16.89486         0.000000     -0.000000     -0.017182
C	     -0.00001      1.42393     16.89508        -0.000000      0.000000     -0.018830
C	      0.00000      0.00000     13.10514        -0.000000     -0.000000      0.017182
4
Lattice="2.466335297 0.000000000 0.000000000 -1.233173441 2.135890810 0.000000000 0.000000000 0.000000000 30.000000000" energy=-37.10800472 virial="0.03453 -0.00000 -0.00000 -0.00000 0.03453 0.00000 -0.00000 0.00000 -0.27935" pbc="T T T" Properties=species:S:1:pos:R:3:forces:R:3
C	      1.23316      0.71197     12.89658         0.000000      0.000000      0.027137
C	      0.00000      0.00000     17.10319        -0.000000     -0.000000     -0.021452
C	     -0.00001      1.42393     17.10342        -0.000000     -0.000000     -0.027137
C	      0.00000      0.00000     12.89681         0.000000      0.000000      0.021452
4
Lattice="2.466335297 0.000000000 0.000000000 -1.233173441 2.135890810 0.000000000 0.000000000 0.000000000 30.000000000" energy=-37.08937210 virial="0.03973 -0.00000 0.00000 -0.00000 0.03973 0.00000 0.00000 0.00000 -0.25691" pbc="T T T" Properties=species:S:1:pos:R:3:forces:R:3
C	      1.23316      0.71197     12.68825         0.000000     -0.000000      0.023141
C	      0.00000      0.00000     17.31153        -0.000000      0.000000     -0.016233
C	     -0.00001      1.42393     17.31175        -0.000000     -0.000000     -0.023141
C	      0.00000      0.00000     12.68847         0.000000      0.000000      0.016233
4
Lattice="2.466335297 0.000000000 0.000000000 -1.233173441 2.135890810 0.000000000 0.000000000 0.000000000 30.000000000" energy=-37.07553830 virial="0.04208 -0.00000 0.00000 -0.00000 0.04208 0.00000 0.00000 0.00000 -0.21264" pbc="T T T" Properties=species:S:1:pos:R:3:forces:R:3
C	      1.23316      0.71197     12.47992         0.000000      0.000000      0.017285
C	      0.00000      0.00000     17.51986         0.000000      0.000000     -0.010042
C	     -0.00001      1.42393     17.52008        -0.000000     -0.000000     -0.017285
C	      0.00000      0.00000     12.48014         0.000000      0.000000      0.010042
4
Lattice="2.466335297 0.000000000 0.000000000 -1.233173441 2.135890810 0.000000000 0.000000000 0.000000000 30.000000000" energy=-37.06616166 virial="0.04317 -0.00000 0.00000 -0.00000 0.04317 -0.00000 0.00000 -0.00000 -0.17497" pbc="T T T" Properties=species:S:1:pos:R:3:forces:R:3
C	      1.23316      0.71197     12.27158         0.000000     -0.000000      0.012861
C	      0.00000      0.00000     17.72819         0.000000      0.000000     -0.005469
C	     -0.00001      1.42393     17.72842        -0.000000      0.000000     -0.012861
C	      0.00000      0.00000     12.27181        -0.000000      0.000000      0.005469
4
Lattice="2.466335297 0.000000000 0.000000000 -1.233173441 2.135890810 0.000000000 0.000000000 0.000000000 30.000000000" energy=-37.05986345 virial="0.04375 -0.00000 0.00000 -0.00000 0.04375 0.00000 0.00000 0.00000 -0.14691" pbc="T T T" Properties=species:S:1:pos:R:3:forces:R:3
C	      1.23316      0.71197     12.06325        -0.000000      0.000000      0.009875
C	      0.00000      0.00000     17.93653        -0.000000     -0.000000     -0.002461
C	     -0.00001      1.42393     17.93675         0.000000     -0.000000     -0.009875
C	      0.00000      0.00000     12.06347         0.000000     -0.000000      0.002461
4
Lattice="2.466335297 0.000000000 0.000000000 -1.233173441 2.135890810 0.000000000 0.000000000 0.000000000 30.000000000" energy=-37.05560444 virial="0.04409 -0.00000 0.00000 -0.00000 0.04408 0.00000 0.00000 0.00000 -0.12803" pbc="T T T" Properties=species:S:1:pos:R:3:forces:R:3
C	      1.23316      0.71197     11.85492         0.000000      0.000000      0.007921
C	      0.00000      0.00000     18.14486        -0.000000      0.000000     -0.000488
C	     -0.00001      1.42393     18.14508        -0.000000      0.000000     -0.007921
C	      0.00000      0.00000     11.85514         0.000000     -0.000000      0.000488
4
Lattice="2.466335297 0.000000000 0.000000000 -1.233173441 2.135890810 0.000000000 0.000000000 0.000000000 30.000000000" energy=-37.05265600 virial="0.04437 -0.00000 -0.00000 -0.00000 0.04436 -0.00000 -0.00000 -0.00000 -0.11476" pbc="T T T" Properties=species:S:1:pos:R:3:forces:R:3
C	      1.23316      0.71197     11.64658        -0.000000      0.000000      0.006688
C	      0.00000      0.00000     18.35319        -0.000000      0.000000      0.000747
C	     -0.00001      1.42393     18.35342         0.000000     -0.000000     -0.006688
C	      0.00000      0.00000     11.64681         0.000000      0.000000     -0.000747
4
Lattice="2.466335297 0.000000000 0.000000000 -1.233173441 2.135890810 0.000000000 0.000000000 0.000000000 30.000000000" energy=-37.05055903 virial="0.04461 -0.00000 0.00000 -0.00000 0.04461 0.00000 0.00000 0.00000 -0.10572" pbc="T T T" Properties=species:S:1:pos:R:3:forces:R:3
C	      1.23316      0.71197     11.43825        -0.000000     -0.000000      0.005868
C	      0.00000      0.00000     18.56153        -0.000000      0.000000      0.001575
C	     -0.00001      1.42393     18.56175        -0.000000      0.000000     -0.005868
C	      0.00000      0.00000     11.43847         0.000000     -0.000000     -0.001575
4
Lattice="2.466335297 0.000000000 0.000000000 -1.233173441 2.135890810 0.000000000 0.000000000 0.000000000 30.000000000" energy=-37.04902323 virial="0.04487 -0.00000 -0.00000 -0.00000 0.04487 -0.00000 -0.00000 -0.00000 -0.09897" pbc="T T T" Properties=species:S:1:pos:R:3:forces:R:3
C	      1.23316      0.71197     11.22992         0.000000     -0.000000      0.005296
C	      0.00000      0.00000     18.76986         0.000000      0.000000      0.002150
C	     -0.00001      1.42393     18.77008        -0.000000     -0.000000     -0.005296
C	      0.00000      0.00000     11.23014        -0.000000      0.000000     -0.002150
