LAMMPS (29 Sep 2021 - Update 3)
Reading data file ...
  orthogonal box = (0.0000000 0.0000000 0.0000000) to (17.868550 17.868550 17.868550)
  1 by 1 by 1 MPI processor grid
  reading atoms ...
  1000 atoms
  read_data CPU = 0.001 seconds
WARNING: No fixes defined, atoms won't move (../verlet.cpp:55)
Use the NEP3 potential with 1 atom type.
    type 0 (C with Z = 6).
    radial cutoff = 4.2 A.
    angular cutoff = 3.7 A.
    n_max_radial = 10.
    n_max_angular = 8.
    basis_size_radial = 10.
    basis_size_angular = 8.
    l_max_3body = 4.
    l_max_4body = 2.
    l_max_5body = 1.
    ANN = 65-100-1.
    number of neural network parameters = 6701.
    number of descriptor parameters = 202.
    total number of parameters = 6903
Neighbor list info ...
  update every 10 steps, delay 0 steps, check no
  max neighbors/atom: 2000, page size: 100000
  master list distance cutoff = 6.2
  ghost atom cutoff = 6.2
  binsize = 3.1, bins = 6 6 6
  1 neighbor lists, perpetual/occasional/extra = 1 0 0
  (1) pair nep, perpetual
      attributes: full, newton on
      pair build: full/bin/atomonly
      stencil: full/bin/3d
      bin: standard
Setting up Verlet run ...
  Unit style    : metal
  Current step  : 0
  Time step     : 0.001
Per MPI rank memory allocation (min/avg/max) = 4.541 | 4.541 | 4.541 Mbytes
Step Temp E_pair E_mol TotEng Press 
       0            0   -3011.5844            0   -3011.5844   -35399.255 
       1            0            0            0            0   -35399.255 
Loop time of 0.0789239 on 1 procs for 1 steps with 1000 atoms

Performance: 1.095 ns/day, 21.923 hours/ns, 12.670 timesteps/s
100.0% CPU use with 1 MPI tasks x no OpenMP threads

MPI task timing breakdown:
Section |  min time  |  avg time  |  max time  |%varavg| %total
---------------------------------------------------------------
Pair    | 0.077554   | 0.077554   | 0.077554   |   0.0 | 98.26
Neigh   | 0          | 0          | 0          |   0.0 |  0.00
Comm    | 1.7881e-05 | 1.7881e-05 | 1.7881e-05 |   0.0 |  0.02
Output  | 0.001343   | 0.001343   | 0.001343   |   0.0 |  1.70
Modify  | 2.3842e-06 | 2.3842e-06 | 2.3842e-06 |   0.0 |  0.00
Other   |            | 6.676e-06  |            |       |  0.01

Nlocal:        1000.00 ave        1000 max        1000 min
Histogram: 1 0 0 0 0 0 0 0 0 0
Nghost:        3905.00 ave        3905 max        3905 min
Histogram: 1 0 0 0 0 0 0 0 0 0
Neighs:         0.00000 ave           0 max           0 min
Histogram: 1 0 0 0 0 0 0 0 0 0
FullNghs:      166750.0 ave      166750 max      166750 min
Histogram: 1 0 0 0 0 0 0 0 0 0

Total # of neighbors = 166750
Ave neighs/atom = 166.75000
Neighbor list builds = 0
Dangerous builds not checked
Total wall time: 0:00:00
