LAMMPS (21 Nov 2023 - Development - patch_21Nov2023-382-g3206608dc0-modified)
Reading data file ...
  orthogonal box = (0 0 -50) to (74.820854 129.59352 50)
  1 by 1 by 1 MPI processor grid
  reading atoms ...
  6912 atoms
Finding 1-2 1-3 1-4 neighbors ...
  special bond factors lj:    0        0        0       
  special bond factors coul:  0        0        0       
     0 = max # of 1-2 neighbors
     0 = max # of 1-3 neighbors
     0 = max # of 1-4 neighbors
     1 = max # of special neighbors
  special bonds CPU = 0.001 seconds
  read_data CPU = 0.022 seconds
WARNING: No fixes with time integration, atoms won't move (../verlet.cpp:60)
Use the NEP3 potential with 3 atom types.
    type 0( Mo with Z = 42).
    type 1( W with Z = 74).
    type 2( Se with Z = 34).
    radial cutoff = 5 A.
    angular cutoff = 5 A.
    n_max_radial = 8.
    n_max_angular = 8.
    basis_size_radial = 12.
    basis_size_angular = 8.
    l_max_3body = 4.
    l_max_4body = 2.
    l_max_5body = 0.
    ANN = 54-50-1.
    number of neural network parameters = 2801.
    number of descriptor parameters = 1782.
    total number of parameters = 4583.
-1 0 2 2 -1 -1 -1 
Use the NEP3 potential with 3 atom types.
    type 0( Mo with Z = 42).
    type 1( W with Z = 74).
    type 2( Se with Z = 34).
    radial cutoff = 5 A.
    angular cutoff = 5 A.
    n_max_radial = 8.
    n_max_angular = 8.
    basis_size_radial = 12.
    basis_size_angular = 8.
    l_max_3body = 4.
    l_max_4body = 2.
    l_max_5body = 0.
    ANN = 54-50-1.
    number of neural network parameters = 2801.
    number of descriptor parameters = 1782.
    total number of parameters = 4583.
-1 -1 -1 -1 0 2 2 
Neighbor list info ...
  update: every = 10 steps, delay = 0 steps, check = no
  max neighbors/atom: 2000, page size: 100000
  master list distance cutoff = 7
  ghost atom cutoff = 7
  binsize = 3.5, bins = 22 38 29
  4 neighbor lists, perpetual/occasional/extra = 4 0 0
  (1) pair nep, perpetual, skip from (4)
      attributes: full, newton on
      pair build: skip
      stencil: none
      bin: none
  (2) pair nep, perpetual, skip from (4)
      attributes: full, newton on
      pair build: skip
      stencil: none
      bin: none
  (3) pair lj/cut, perpetual, half/full trim from (4)
      attributes: half, newton on, cut 2.1
      pair build: halffull/trim/newton
      stencil: none
      bin: none
  (4) neighbor class addition, perpetual
      attributes: full, newton on
      pair build: full/bin
      stencil: full/bin/3d
      bin: standard
Setting up Verlet run ...
  Unit style    : metal
  Current step  : 0
  Time step     : 0.001
Per MPI rank memory allocation (min/avg/max) = 10.2 | 10.2 | 10.2 Mbytes
   Step          Temp          E_pair         E_mol          TotEng         Press     
         0   0             -43647.598      0             -43647.598      44183.99     
         1   0             -43647.598      0             -43647.598      44183.99     
Loop time of 0.222298 on 1 procs for 1 steps with 6912 atoms

Performance: 0.389 ns/day, 61.749 hours/ns, 4.498 timesteps/s, 31.093 katom-step/s
100.0% CPU use with 1 MPI tasks x no OpenMP threads

MPI task timing breakdown:
Section |  min time  |  avg time  |  max time  |%varavg| %total
---------------------------------------------------------------
Pair    | 0.21484    | 0.21484    | 0.21484    |   0.0 | 96.64
Bond    | 8.41e-07   | 8.41e-07   | 8.41e-07   |   0.0 |  0.00
Neigh   | 0          | 0          | 0          |   0.0 |  0.00
Comm    | 4.3096e-05 | 4.3096e-05 | 4.3096e-05 |   0.0 |  0.02
Output  | 0.007404   | 0.007404   | 0.007404   |   0.0 |  3.33
Modify  | 1.264e-06  | 1.264e-06  | 1.264e-06  |   0.0 |  0.00
Other   |            | 1.11e-05   |            |       |  0.00

Nlocal:           6912 ave        6912 max        6912 min
Histogram: 1 0 0 0 0 0 0 0 0 0
Nghost:           2151 ave        2151 max        2151 min
Histogram: 1 0 0 0 0 0 0 0 0 0
Neighs:              0 ave           0 max           0 min
Histogram: 1 0 0 0 0 0 0 0 0 0

Total # of neighbors = 0
Ave neighs/atom = 0
Ave special neighs/atom = 0
Neighbor list builds = 0
Dangerous builds not checked
Total wall time: 0:00:00
