# LAMMPS data file written by Ovito 3.9.1

1600 atoms
2 atom types

-33.215409 16.0181906793 xlo xhi
-19.218771 23.4235962443 ylo yhi
-50.0 50.0 zlo zhi
24.6165765867 0.0 0.0 xy xz yz

Atoms  # full

1 1 1 0.0 -9.2133015755 21.6487299347 0.0
2 1 1 0.0 -7.9822937964 22.3592585687 0.0
3 2 2 0.0 -9.2133015755 21.6487299347 4.0
4 2 2 0.0 -7.9822937964 22.3592585687 4.0
5 1 1 0.0 -32.5990493328 -18.8615189474 0.0
6 1 1 0.0 -31.3680415537 -18.1509903134 0.0
7 2 2 0.0 -32.5990493328 -18.8615189474 4.0
8 2 2 0.0 -31.3680415537 -18.1509903134 4.0
9 1 1 0.0 -31.3682205035 -16.7294005852 0.0
10 1 1 0.0 -30.1372127244 -16.0188719512 0.0
11 2 2 0.0 -31.3682205035 -16.7294005852 4.0
12 2 2 0.0 -30.1372127244 -16.0188719512 4.0
13 1 1 0.0 -30.1373916742 -14.5972822229 0.0
14 1 1 0.0 -28.906383895 -13.886753589 0.0
15 2 2 0.0 -30.1373916742 -14.5972822229 4.0
16 2 2 0.0 -28.906383895 -13.886753589 4.0
17 1 1 0.0 -28.9065628448 -12.4651638607 0.0
18 1 1 0.0 -27.6755550657 -11.7546352267 0.0
19 2 2 0.0 -28.9065628448 -12.4651638607 4.0
20 2 2 0.0 -27.6755550657 -11.7546352267 4.0
21 1 1 0.0 -27.6757340155 -10.3330454985 0.0
22 1 1 0.0 -26.4447262364 -9.6225168645 0.0
23 2 2 0.0 -27.6757340155 -10.3330454985 4.0
24 2 2 0.0 -26.4447262364 -9.6225168645 4.0
25 1 1 0.0 -26.4449051862 -8.2009271363 0.0
26 1 1 0.0 -25.213897407 -7.4903985023 0.0
27 2 2 0.0 -26.4449051862 -8.2009271363 4.0
28 2 2 0.0 -25.213897407 -7.4903985023 4.0
29 1 1 0.0 -25.2140763568 -6.0688087741 0.0
30 1 1 0.0 -23.9830685777 -5.3582801401 0.0
31 2 2 0.0 -25.2140763568 -6.0688087741 4.0
32 2 2 0.0 -23.9830685777 -5.3582801401 4.0
33 1 1 0.0 -23.9832475275 -3.9366904119 0.0
34 1 1 0.0 -22.7522397484 -3.2261617779 0.0
35 2 2 0.0 -23.9832475275 -3.9366904119 4.0
36 2 2 0.0 -22.7522397484 -3.2261617779 4.0
37 1 1 0.0 -22.7524186982 -1.8045720497 0.0
38 1 1 0.0 -21.521410919 -1.0940434157 0.0
39 2 2 0.0 -22.7524186982 -1.8045720497 4.0
40 2 2 0.0 -21.521410919 -1.0940434157 4.0
41 1 1 0.0 -21.5215898688 0.3275463126 0.0
42 1 1 0.0 -20.2905820897 1.0380749465 0.0
43 2 2 0.0 -21.5215898688 0.3275463126 4.0
44 2 2 0.0 -20.2905820897 1.0380749465 4.0
45 1 1 0.0 -20.2907610395 2.4596646748 0.0
46 1 1 0.0 -19.0597532604 3.1701933088 0.0
47 2 2 0.0 -20.2907610395 2.4596646748 4.0
48 2 2 0.0 -19.0597532604 3.1701933088 4.0
49 1 1 0.0 -19.0599322102 4.591783037 0.0
50 1 1 0.0 -17.828924431 5.302311671 0.0
51 2 2 0.0 -19.0599322102 4.591783037 4.0
52 2 2 0.0 -17.828924431 5.302311671 4.0
53 1 1 0.0 -17.8291033808 6.7239013992 0.0
54 1 1 0.0 -16.5980956017 7.4344300332 0.0
55 2 2 0.0 -17.8291033808 6.7239013992 4.0
56 2 2 0.0 -16.5980956017 7.4344300332 4.0
57 1 1 0.0 -16.5982745515 8.8560197614 0.0
58 1 1 0.0 -15.3672667724 9.5665483954 0.0
59 2 2 0.0 -16.5982745515 8.8560197614 4.0
60 2 2 0.0 -15.3672667724 9.5665483954 4.0
61 1 1 0.0 -15.3674457222 10.9881381236 0.0
62 1 1 0.0 -14.136437943 11.6986667576 0.0
63 2 2 0.0 -15.3674457222 10.9881381236 4.0
64 2 2 0.0 -14.136437943 11.6986667576 4.0
65 1 1 0.0 -14.1366168928 13.1202564858 0.0
66 1 1 0.0 -12.9056091137 13.8307851198 0.0
67 2 2 0.0 -14.1366168928 13.1202564858 4.0
68 2 2 0.0 -12.9056091137 13.8307851198 4.0
69 1 1 0.0 -12.9057880635 15.252374848 0.0
70 1 1 0.0 -11.6747802844 15.962903482 0.0
71 2 2 0.0 -12.9057880635 15.252374848 4.0
72 2 2 0.0 -11.6747802844 15.962903482 4.0
73 1 1 0.0 -11.6749592342 17.3844932103 0.0
74 1 1 0.0 -10.443951455 18.0950218442 0.0
75 2 2 0.0 -11.6749592342 17.3844932103 4.0
76 2 2 0.0 -10.443951455 18.0950218442 4.0
77 1 1 0.0 -10.4441304048 19.5166115725 0.0
78 1 1 0.0 -9.2131226257 20.2271402065 0.0
79 2 2 0.0 -10.4441304048 19.5166115725 4.0
80 2 2 0.0 -9.2131226257 20.2271402065 4.0
81 1 1 0.0 -6.7516215915 21.6487299347 0.0
82 1 1 0.0 -5.5206138124 22.3592585687 0.0
83 2 2 0.0 -6.7516215915 21.6487299347 4.0
84 2 2 0.0 -5.5206138124 22.3592585687 4.0
85 1 1 0.0 -30.1373693489 -18.8615189474 0.0
86 1 1 0.0 -28.9063615697 -18.1509903134 0.0
87 2 2 0.0 -30.1373693489 -18.8615189474 4.0
88 2 2 0.0 -28.9063615697 -18.1509903134 4.0
89 1 1 0.0 -28.9065405195 -16.7294005852 0.0
90 1 1 0.0 -27.6755327404 -16.0188719512 0.0
91 2 2 0.0 -28.9065405195 -16.7294005852 4.0
92 2 2 0.0 -27.6755327404 -16.0188719512 4.0
93 1 1 0.0 -27.6757116902 -14.5972822229 0.0
94 1 1 0.0 -26.4447039111 -13.886753589 0.0
95 2 2 0.0 -27.6757116902 -14.5972822229 4.0
96 2 2 0.0 -26.4447039111 -13.886753589 4.0
97 1 1 0.0 -26.4448828609 -12.4651638607 0.0
98 1 1 0.0 -25.2138750817 -11.7546352267 0.0
99 2 2 0.0 -26.4448828609 -12.4651638607 4.0
100 2 2 0.0 -25.2138750817 -11.7546352267 4.0
101 1 1 0.0 -25.2140540315 -10.3330454985 0.0
102 1 1 0.0 -23.9830462524 -9.6225168645 0.0
103 2 2 0.0 -25.2140540315 -10.3330454985 4.0
104 2 2 0.0 -23.9830462524 -9.6225168645 4.0
105 1 1 0.0 -23.9832252022 -8.2009271363 0.0
106 1 1 0.0 -22.7522174231 -7.4903985023 0.0
107 2 2 0.0 -23.9832252022 -8.2009271363 4.0
108 2 2 0.0 -22.7522174231 -7.4903985023 4.0
109 1 1 0.0 -22.7523963729 -6.0688087741 0.0
110 1 1 0.0 -21.5213885937 -5.3582801401 0.0
111 2 2 0.0 -22.7523963729 -6.0688087741 4.0
112 2 2 0.0 -21.5213885937 -5.3582801401 4.0
113 1 1 0.0 -21.5215675435 -3.9366904119 0.0
114 1 1 0.0 -20.2905597644 -3.2261617779 0.0
115 2 2 0.0 -21.5215675435 -3.9366904119 4.0
116 2 2 0.0 -20.2905597644 -3.2261617779 4.0
117 1 1 0.0 -20.2907387142 -1.8045720497 0.0
118 1 1 0.0 -19.0597309351 -1.0940434157 0.0
119 2 2 0.0 -20.2907387142 -1.8045720497 4.0
120 2 2 0.0 -19.0597309351 -1.0940434157 4.0
121 1 1 0.0 -19.0599098849 0.3275463126 0.0
122 1 1 0.0 -17.8289021057 1.0380749465 0.0
123 2 2 0.0 -19.0599098849 0.3275463126 4.0
124 2 2 0.0 -17.8289021057 1.0380749465 4.0
125 1 1 0.0 -17.8290810555 2.4596646748 0.0
126 1 1 0.0 -16.5980732764 3.1701933088 0.0
127 2 2 0.0 -17.8290810555 2.4596646748 4.0
128 2 2 0.0 -16.5980732764 3.1701933088 4.0
129 1 1 0.0 -16.5982522262 4.591783037 0.0
130 1 1 0.0 -15.3672444471 5.302311671 0.0
131 2 2 0.0 -16.5982522262 4.591783037 4.0
132 2 2 0.0 -15.3672444471 5.302311671 4.0
133 1 1 0.0 -15.3674233969 6.7239013992 0.0
134 1 1 0.0 -14.1364156177 7.4344300332 0.0
135 2 2 0.0 -15.3674233969 6.7239013992 4.0
136 2 2 0.0 -14.1364156177 7.4344300332 4.0
137 1 1 0.0 -14.1365945675 8.8560197614 0.0
138 1 1 0.0 -12.9055867884 9.5665483954 0.0
139 2 2 0.0 -14.1365945675 8.8560197614 4.0
140 2 2 0.0 -12.9055867884 9.5665483954 4.0
141 1 1 0.0 -12.9057657382 10.9881381236 0.0
142 1 1 0.0 -11.6747579591 11.6986667576 0.0
143 2 2 0.0 -12.9057657382 10.9881381236 4.0
144 2 2 0.0 -11.6747579591 11.6986667576 4.0
145 1 1 0.0 -11.6749369089 13.1202564858 0.0
146 1 1 0.0 -10.4439291297 13.8307851198 0.0
147 2 2 0.0 -11.6749369089 13.1202564858 4.0
148 2 2 0.0 -10.4439291297 13.8307851198 4.0
149 1 1 0.0 -10.4441080795 15.252374848 0.0
150 1 1 0.0 -9.2131003004 15.962903482 0.0
151 2 2 0.0 -10.4441080795 15.252374848 4.0
152 2 2 0.0 -9.2131003004 15.962903482 4.0
153 1 1 0.0 -9.2132792502 17.3844932103 0.0
154 1 1 0.0 -7.9822714711 18.0950218442 0.0
155 2 2 0.0 -9.2132792502 17.3844932103 4.0
156 2 2 0.0 -7.9822714711 18.0950218442 4.0
157 1 1 0.0 -7.9824504209 19.5166115725 0.0
158 1 1 0.0 -6.7514426417 20.2271402065 0.0
159 2 2 0.0 -7.9824504209 19.5166115725 4.0
160 2 2 0.0 -6.7514426417 20.2271402065 4.0
161 1 1 0.0 -4.2899416076 21.6487299347 0.0
162 1 1 0.0 -3.0589338284 22.3592585687 0.0
163 2 2 0.0 -4.2899416076 21.6487299347 4.0
164 2 2 0.0 -3.0589338284 22.3592585687 4.0
165 1 1 0.0 -27.6756893649 -18.8615189474 0.0
166 1 1 0.0 -26.4446815858 -18.1509903134 0.0
167 2 2 0.0 -27.6756893649 -18.8615189474 4.0
168 2 2 0.0 -26.4446815858 -18.1509903134 4.0
169 1 1 0.0 -26.4448605356 -16.7294005852 0.0
170 1 1 0.0 -25.2138527564 -16.0188719512 0.0
171 2 2 0.0 -26.4448605356 -16.7294005852 4.0
172 2 2 0.0 -25.2138527564 -16.0188719512 4.0
173 1 1 0.0 -25.2140317062 -14.5972822229 0.0
174 1 1 0.0 -23.9830239271 -13.886753589 0.0
175 2 2 0.0 -25.2140317062 -14.5972822229 4.0
176 2 2 0.0 -23.9830239271 -13.886753589 4.0
177 1 1 0.0 -23.9832028769 -12.4651638607 0.0
178 1 1 0.0 -22.7521950978 -11.7546352267 0.0
179 2 2 0.0 -23.9832028769 -12.4651638607 4.0
180 2 2 0.0 -22.7521950978 -11.7546352267 4.0
181 1 1 0.0 -22.7523740476 -10.3330454985 0.0
182 1 1 0.0 -21.5213662684 -9.6225168645 0.0
183 2 2 0.0 -22.7523740476 -10.3330454985 4.0
184 2 2 0.0 -21.5213662684 -9.6225168645 4.0
185 1 1 0.0 -21.5215452182 -8.2009271363 0.0
186 1 1 0.0 -20.2905374391 -7.4903985023 0.0
187 2 2 0.0 -21.5215452182 -8.2009271363 4.0
188 2 2 0.0 -20.2905374391 -7.4903985023 4.0
189 1 1 0.0 -20.2907163889 -6.0688087741 0.0
190 1 1 0.0 -19.0597086098 -5.3582801401 0.0
191 2 2 0.0 -20.2907163889 -6.0688087741 4.0
192 2 2 0.0 -19.0597086098 -5.3582801401 4.0
193 1 1 0.0 -19.0598875596 -3.9366904119 0.0
194 1 1 0.0 -17.8288797804 -3.2261617779 0.0
195 2 2 0.0 -19.0598875596 -3.9366904119 4.0
196 2 2 0.0 -17.8288797804 -3.2261617779 4.0
197 1 1 0.0 -17.8290587302 -1.8045720497 0.0
198 1 1 0.0 -16.5980509511 -1.0940434157 0.0
199 2 2 0.0 -17.8290587302 -1.8045720497 4.0
200 2 2 0.0 -16.5980509511 -1.0940434157 4.0
201 1 1 0.0 -16.5982299009 0.3275463126 0.0
202 1 1 0.0 -15.3672221218 1.0380749465 0.0
203 2 2 0.0 -16.5982299009 0.3275463126 4.0
204 2 2 0.0 -15.3672221218 1.0380749465 4.0
205 1 1 0.0 -15.3674010716 2.4596646748 0.0
206 1 1 0.0 -14.1363932924 3.1701933088 0.0
207 2 2 0.0 -15.3674010716 2.4596646748 4.0
208 2 2 0.0 -14.1363932924 3.1701933088 4.0
209 1 1 0.0 -14.1365722422 4.591783037 0.0
210 1 1 0.0 -12.9055644631 5.302311671 0.0
211 2 2 0.0 -14.1365722422 4.591783037 4.0
212 2 2 0.0 -12.9055644631 5.302311671 4.0
213 1 1 0.0 -12.9057434129 6.7239013992 0.0
214 1 1 0.0 -11.6747356338 7.4344300332 0.0
215 2 2 0.0 -12.9057434129 6.7239013992 4.0
216 2 2 0.0 -11.6747356338 7.4344300332 4.0
217 1 1 0.0 -11.6749145836 8.8560197614 0.0
218 1 1 0.0 -10.4439068044 9.5665483954 0.0
219 2 2 0.0 -11.6749145836 8.8560197614 4.0
220 2 2 0.0 -10.4439068044 9.5665483954 4.0
221 1 1 0.0 -10.4440857542 10.9881381236 0.0
222 1 1 0.0 -9.2130779751 11.6986667576 0.0
223 2 2 0.0 -10.4440857542 10.9881381236 4.0
224 2 2 0.0 -9.2130779751 11.6986667576 4.0
225 1 1 0.0 -9.2132569249 13.1202564858 0.0
226 1 1 0.0 -7.9822491458 13.8307851198 0.0
227 2 2 0.0 -9.2132569249 13.1202564858 4.0
228 2 2 0.0 -7.9822491458 13.8307851198 4.0
229 1 1 0.0 -7.9824280956 15.252374848 0.0
230 1 1 0.0 -6.7514203164 15.962903482 0.0
231 2 2 0.0 -7.9824280956 15.252374848 4.0
232 2 2 0.0 -6.7514203164 15.962903482 4.0
233 1 1 0.0 -6.7515992662 17.3844932103 0.0
234 1 1 0.0 -5.5205914871 18.0950218442 0.0
235 2 2 0.0 -6.7515992662 17.3844932103 4.0
236 2 2 0.0 -5.5205914871 18.0950218442 4.0
237 1 1 0.0 -5.5207704369 19.5166115725 0.0
238 1 1 0.0 -4.2897626578 20.2271402065 0.0
239 2 2 0.0 -5.5207704369 19.5166115725 4.0
240 2 2 0.0 -4.2897626578 20.2271402065 4.0
241 1 1 0.0 -1.8282616236 21.6487299347 0.0
242 1 1 0.0 -0.5972538445 22.3592585687 0.0
243 2 2 0.0 -1.8282616236 21.6487299347 4.0
244 2 2 0.0 -0.5972538445 22.3592585687 4.0
245 1 1 0.0 -25.214009381 -18.8615189474 0.0
246 1 1 0.0 -23.9830016018 -18.1509903134 0.0
247 2 2 0.0 -25.214009381 -18.8615189474 4.0
248 2 2 0.0 -23.9830016018 -18.1509903134 4.0
249 1 1 0.0 -23.9831805516 -16.7294005852 0.0
250 1 1 0.0 -22.7521727725 -16.0188719512 0.0
251 2 2 0.0 -23.9831805516 -16.7294005852 4.0
252 2 2 0.0 -22.7521727725 -16.0188719512 4.0
253 1 1 0.0 -22.7523517223 -14.5972822229 0.0
254 1 1 0.0 -21.5213439431 -13.886753589 0.0
255 2 2 0.0 -22.7523517223 -14.5972822229 4.0
256 2 2 0.0 -21.5213439431 -13.886753589 4.0
257 1 1 0.0 -21.521522893 -12.4651638607 0.0
258 1 1 0.0 -20.2905151138 -11.7546352267 0.0
259 2 2 0.0 -21.521522893 -12.4651638607 4.0
260 2 2 0.0 -20.2905151138 -11.7546352267 4.0
261 1 1 0.0 -20.2906940636 -10.3330454985 0.0
262 1 1 0.0 -19.0596862845 -9.6225168645 0.0
263 2 2 0.0 -20.2906940636 -10.3330454985 4.0
264 2 2 0.0 -19.0596862845 -9.6225168645 4.0
265 1 1 0.0 -19.0598652343 -8.2009271363 0.0
266 1 1 0.0 -17.8288574551 -7.4903985023 0.0
267 2 2 0.0 -19.0598652343 -8.2009271363 4.0
268 2 2 0.0 -17.8288574551 -7.4903985023 4.0
269 1 1 0.0 -17.8290364049 -6.0688087741 0.0
270 1 1 0.0 -16.5980286258 -5.3582801401 0.0
271 2 2 0.0 -17.8290364049 -6.0688087741 4.0
272 2 2 0.0 -16.5980286258 -5.3582801401 4.0
273 1 1 0.0 -16.5982075756 -3.9366904119 0.0
274 1 1 0.0 -15.3671997965 -3.2261617779 0.0
275 2 2 0.0 -16.5982075756 -3.9366904119 4.0
276 2 2 0.0 -15.3671997965 -3.2261617779 4.0
277 1 1 0.0 -15.3673787463 -1.8045720497 0.0
278 1 1 0.0 -14.1363709671 -1.0940434157 0.0
279 2 2 0.0 -15.3673787463 -1.8045720497 4.0
280 2 2 0.0 -14.1363709671 -1.0940434157 4.0
281 1 1 0.0 -14.1365499169 0.3275463126 0.0
282 1 1 0.0 -12.9055421378 1.0380749465 0.0
283 2 2 0.0 -14.1365499169 0.3275463126 4.0
284 2 2 0.0 -12.9055421378 1.0380749465 4.0
285 1 1 0.0 -12.9057210876 2.4596646748 0.0
286 1 1 0.0 -11.6747133085 3.1701933088 0.0
287 2 2 0.0 -12.9057210876 2.4596646748 4.0
288 2 2 0.0 -11.6747133085 3.1701933088 4.0
289 1 1 0.0 -11.6748922583 4.591783037 0.0
290 1 1 0.0 -10.4438844791 5.302311671 0.0
291 2 2 0.0 -11.6748922583 4.591783037 4.0
292 2 2 0.0 -10.4438844791 5.302311671 4.0
293 1 1 0.0 -10.4440634289 6.7239013992 0.0
294 1 1 0.0 -9.2130556498 7.4344300332 0.0
295 2 2 0.0 -10.4440634289 6.7239013992 4.0
296 2 2 0.0 -9.2130556498 7.4344300332 4.0
297 1 1 0.0 -9.2132345996 8.8560197614 0.0
298 1 1 0.0 -7.9822268205 9.5665483954 0.0
299 2 2 0.0 -9.2132345996 8.8560197614 4.0
300 2 2 0.0 -7.9822268205 9.5665483954 4.0
301 1 1 0.0 -7.9824057703 10.9881381236 0.0
302 1 1 0.0 -6.7513979911 11.6986667576 0.0
303 2 2 0.0 -7.9824057703 10.9881381236 4.0
304 2 2 0.0 -6.7513979911 11.6986667576 4.0
305 1 1 0.0 -6.7515769409 13.1202564858 0.0
306 1 1 0.0 -5.5205691618 13.8307851198 0.0
307 2 2 0.0 -6.7515769409 13.1202564858 4.0
308 2 2 0.0 -5.5205691618 13.8307851198 4.0
309 1 1 0.0 -5.5207481116 15.252374848 0.0
310 1 1 0.0 -4.2897403325 15.962903482 0.0
311 2 2 0.0 -5.5207481116 15.252374848 4.0
312 2 2 0.0 -4.2897403325 15.962903482 4.0
313 1 1 0.0 -4.2899192823 17.3844932103 0.0
314 1 1 0.0 -3.0589115031 18.0950218442 0.0
315 2 2 0.0 -4.2899192823 17.3844932103 4.0
316 2 2 0.0 -3.0589115031 18.0950218442 4.0
317 1 1 0.0 -3.0590904529 19.5166115725 0.0
318 1 1 0.0 -1.8280826738 20.2271402065 0.0
319 2 2 0.0 -3.0590904529 19.5166115725 4.0
320 2 2 0.0 -1.8280826738 20.2271402065 4.0
321 1 1 0.0 0.6334183604 21.6487299347 0.0
322 1 1 0.0 1.8644261395 22.3592585687 0.0
323 2 2 0.0 0.6334183604 21.6487299347 4.0
324 2 2 0.0 1.8644261395 22.3592585687 4.0
325 1 1 0.0 -22.752329397 -18.8615189474 0.0
326 1 1 0.0 -21.5213216179 -18.1509903134 0.0
327 2 2 0.0 -22.752329397 -18.8615189474 4.0
328 2 2 0.0 -21.5213216179 -18.1509903134 4.0
329 1 1 0.0 -21.5215005677 -16.7294005852 0.0
330 1 1 0.0 -20.2904927885 -16.0188719512 0.0
331 2 2 0.0 -21.5215005677 -16.7294005852 4.0
332 2 2 0.0 -20.2904927885 -16.0188719512 4.0
333 1 1 0.0 -20.2906717383 -14.5972822229 0.0
334 1 1 0.0 -19.0596639592 -13.886753589 0.0
335 2 2 0.0 -20.2906717383 -14.5972822229 4.0
336 2 2 0.0 -19.0596639592 -13.886753589 4.0
337 1 1 0.0 -19.059842909 -12.4651638607 0.0
338 1 1 0.0 -17.8288351298 -11.7546352267 0.0
339 2 2 0.0 -19.059842909 -12.4651638607 4.0
340 2 2 0.0 -17.8288351298 -11.7546352267 4.0
341 1 1 0.0 -17.8290140797 -10.3330454985 0.0
342 1 1 0.0 -16.5980063005 -9.6225168645 0.0
343 2 2 0.0 -17.8290140797 -10.3330454985 4.0
344 2 2 0.0 -16.5980063005 -9.6225168645 4.0
345 1 1 0.0 -16.5981852503 -8.2009271363 0.0
346 1 1 0.0 -15.3671774712 -7.4903985023 0.0
347 2 2 0.0 -16.5981852503 -8.2009271363 4.0
348 2 2 0.0 -15.3671774712 -7.4903985023 4.0
349 1 1 0.0 -15.367356421 -6.0688087741 0.0
350 1 1 0.0 -14.1363486418 -5.3582801401 0.0
351 2 2 0.0 -15.367356421 -6.0688087741 4.0
352 2 2 0.0 -14.1363486418 -5.3582801401 4.0
353 1 1 0.0 -14.1365275917 -3.9366904119 0.0
354 1 1 0.0 -12.9055198125 -3.2261617779 0.0
355 2 2 0.0 -14.1365275917 -3.9366904119 4.0
356 2 2 0.0 -12.9055198125 -3.2261617779 4.0
357 1 1 0.0 -12.9056987623 -1.8045720497 0.0
358 1 1 0.0 -11.6746909832 -1.0940434157 0.0
359 2 2 0.0 -12.9056987623 -1.8045720497 4.0
360 2 2 0.0 -11.6746909832 -1.0940434157 4.0
361 1 1 0.0 -11.674869933 0.3275463126 0.0
362 1 1 0.0 -10.4438621538 1.0380749465 0.0
363 2 2 0.0 -11.674869933 0.3275463126 4.0
364 2 2 0.0 -10.4438621538 1.0380749465 4.0
365 1 1 0.0 -10.4440411037 2.4596646748 0.0
366 1 1 0.0 -9.2130333245 3.1701933088 0.0
367 2 2 0.0 -10.4440411037 2.4596646748 4.0
368 2 2 0.0 -9.2130333245 3.1701933088 4.0
369 1 1 0.0 -9.2132122743 4.591783037 0.0
370 1 1 0.0 -7.9822044952 5.302311671 0.0
371 2 2 0.0 -9.2132122743 4.591783037 4.0
372 2 2 0.0 -7.9822044952 5.302311671 4.0
373 1 1 0.0 -7.982383445 6.7239013992 0.0
374 1 1 0.0 -6.7513756658 7.4344300332 0.0
375 2 2 0.0 -7.982383445 6.7239013992 4.0
376 2 2 0.0 -6.7513756658 7.4344300332 4.0
377 1 1 0.0 -6.7515546156 8.8560197614 0.0
378 1 1 0.0 -5.5205468365 9.5665483954 0.0
379 2 2 0.0 -6.7515546156 8.8560197614 4.0
380 2 2 0.0 -5.5205468365 9.5665483954 4.0
381 1 1 0.0 -5.5207257863 10.9881381236 0.0
382 1 1 0.0 -4.2897180072 11.6986667576 0.0
383 2 2 0.0 -5.5207257863 10.9881381236 4.0
384 2 2 0.0 -4.2897180072 11.6986667576 4.0
385 1 1 0.0 -4.289896957 13.1202564858 0.0
386 1 1 0.0 -3.0588891778 13.8307851198 0.0
387 2 2 0.0 -4.289896957 13.1202564858 4.0
388 2 2 0.0 -3.0588891778 13.8307851198 4.0
389 1 1 0.0 -3.0590681276 15.252374848 0.0
390 1 1 0.0 -1.8280603485 15.962903482 0.0
391 2 2 0.0 -3.0590681276 15.252374848 4.0
392 2 2 0.0 -1.8280603485 15.962903482 4.0
393 1 1 0.0 -1.8282392983 17.3844932103 0.0
394 1 1 0.0 -0.5972315192 18.0950218442 0.0
395 2 2 0.0 -1.8282392983 17.3844932103 4.0
396 2 2 0.0 -0.5972315192 18.0950218442 4.0
397 1 1 0.0 -0.597410469 19.5166115725 0.0
398 1 1 0.0 0.6335973102 20.2271402065 0.0
399 2 2 0.0 -0.597410469 19.5166115725 4.0
400 2 2 0.0 0.6335973102 20.2271402065 4.0
401 1 1 0.0 3.0950983443 21.6487299347 0.0
402 1 1 0.0 4.3261061235 22.3592585687 0.0
403 2 2 0.0 3.0950983443 21.6487299347 4.0
404 2 2 0.0 4.3261061235 22.3592585687 4.0
405 1 1 0.0 -20.290649413 -18.8615189474 0.0
406 1 1 0.0 -19.0596416339 -18.1509903134 0.0
407 2 2 0.0 -20.290649413 -18.8615189474 4.0
408 2 2 0.0 -19.0596416339 -18.1509903134 4.0
409 1 1 0.0 -19.0598205837 -16.7294005852 0.0
410 1 1 0.0 -17.8288128046 -16.0188719512 0.0
411 2 2 0.0 -19.0598205837 -16.7294005852 4.0
412 2 2 0.0 -17.8288128046 -16.0188719512 4.0
413 1 1 0.0 -17.8289917544 -14.5972822229 0.0
414 1 1 0.0 -16.5979839752 -13.886753589 0.0
415 2 2 0.0 -17.8289917544 -14.5972822229 4.0
416 2 2 0.0 -16.5979839752 -13.886753589 4.0
417 1 1 0.0 -16.598162925 -12.4651638607 0.0
418 1 1 0.0 -15.3671551459 -11.7546352267 0.0
419 2 2 0.0 -16.598162925 -12.4651638607 4.0
420 2 2 0.0 -15.3671551459 -11.7546352267 4.0
421 1 1 0.0 -15.3673340957 -10.3330454985 0.0
422 1 1 0.0 -14.1363263166 -9.6225168645 0.0
423 2 2 0.0 -15.3673340957 -10.3330454985 4.0
424 2 2 0.0 -14.1363263166 -9.6225168645 4.0
425 1 1 0.0 -14.1365052664 -8.2009271363 0.0
426 1 1 0.0 -12.9054974872 -7.4903985023 0.0
427 2 2 0.0 -14.1365052664 -8.2009271363 4.0
428 2 2 0.0 -12.9054974872 -7.4903985023 4.0
429 1 1 0.0 -12.905676437 -6.0688087741 0.0
430 1 1 0.0 -11.6746686579 -5.3582801401 0.0
431 2 2 0.0 -12.905676437 -6.0688087741 4.0
432 2 2 0.0 -11.6746686579 -5.3582801401 4.0
433 1 1 0.0 -11.6748476077 -3.9366904119 0.0
434 1 1 0.0 -10.4438398285 -3.2261617779 0.0
435 2 2 0.0 -11.6748476077 -3.9366904119 4.0
436 2 2 0.0 -10.4438398285 -3.2261617779 4.0
437 1 1 0.0 -10.4440187784 -1.8045720497 0.0
438 1 1 0.0 -9.2130109992 -1.0940434157 0.0
439 2 2 0.0 -10.4440187784 -1.8045720497 4.0
440 2 2 0.0 -9.2130109992 -1.0940434157 4.0
441 1 1 0.0 -9.213189949 0.3275463126 0.0
442 1 1 0.0 -7.9821821699 1.0380749465 0.0
443 2 2 0.0 -9.213189949 0.3275463126 4.0
444 2 2 0.0 -7.9821821699 1.0380749465 4.0
445 1 1 0.0 -7.9823611197 2.4596646748 0.0
446 1 1 0.0 -6.7513533405 3.1701933088 0.0
447 2 2 0.0 -7.9823611197 2.4596646748 4.0
448 2 2 0.0 -6.7513533405 3.1701933088 4.0
449 1 1 0.0 -6.7515322904 4.591783037 0.0
450 1 1 0.0 -5.5205245112 5.302311671 0.0
451 2 2 0.0 -6.7515322904 4.591783037 4.0
452 2 2 0.0 -5.5205245112 5.302311671 4.0
453 1 1 0.0 -5.520703461 6.7239013992 0.0
454 1 1 0.0 -4.2896956819 7.4344300332 0.0
455 2 2 0.0 -5.520703461 6.7239013992 4.0
456 2 2 0.0 -4.2896956819 7.4344300332 4.0
457 1 1 0.0 -4.2898746317 8.8560197614 0.0
458 1 1 0.0 -3.0588668525 9.5665483954 0.0
459 2 2 0.0 -4.2898746317 8.8560197614 4.0
460 2 2 0.0 -3.0588668525 9.5665483954 4.0
461 1 1 0.0 -3.0590458024 10.9881381236 0.0
462 1 1 0.0 -1.8280380232 11.6986667576 0.0
463 2 2 0.0 -3.0590458024 10.9881381236 4.0
464 2 2 0.0 -1.8280380232 11.6986667576 4.0
465 1 1 0.0 -1.828216973 13.1202564858 0.0
466 1 1 0.0 -0.5972091939 13.8307851198 0.0
467 2 2 0.0 -1.828216973 13.1202564858 4.0
468 2 2 0.0 -0.5972091939 13.8307851198 4.0
469 1 1 0.0 -0.5973881437 15.252374848 0.0
470 1 1 0.0 0.6336196355 15.962903482 0.0
471 2 2 0.0 -0.5973881437 15.252374848 4.0
472 2 2 0.0 0.6336196355 15.962903482 4.0
473 1 1 0.0 0.6334406857 17.3844932103 0.0
474 1 1 0.0 1.8644484648 18.0950218442 0.0
475 2 2 0.0 0.6334406857 17.3844932103 4.0
476 2 2 0.0 1.8644484648 18.0950218442 4.0
477 1 1 0.0 1.864269515 19.5166115725 0.0
478 1 1 0.0 3.0952772941 20.2271402065 0.0
479 2 2 0.0 1.864269515 19.5166115725 4.0
480 2 2 0.0 3.0952772941 20.2271402065 4.0
481 1 1 0.0 5.5567783283 21.6487299347 0.0
482 1 1 0.0 6.7877861074 22.3592585687 0.0
483 2 2 0.0 5.5567783283 21.6487299347 4.0
484 2 2 0.0 6.7877861074 22.3592585687 4.0
485 1 1 0.0 -17.8289694291 -18.8615189474 0.0
486 1 1 0.0 -16.5979616499 -18.1509903134 0.0
487 2 2 0.0 -17.8289694291 -18.8615189474 4.0
488 2 2 0.0 -16.5979616499 -18.1509903134 4.0
489 1 1 0.0 -16.5981405997 -16.7294005852 0.0
490 1 1 0.0 -15.3671328206 -16.0188719512 0.0
491 2 2 0.0 -16.5981405997 -16.7294005852 4.0
492 2 2 0.0 -15.3671328206 -16.0188719512 4.0
493 1 1 0.0 -15.3673117704 -14.5972822229 0.0
494 1 1 0.0 -14.1363039913 -13.886753589 0.0
495 2 2 0.0 -15.3673117704 -14.5972822229 4.0
496 2 2 0.0 -14.1363039913 -13.886753589 4.0
497 1 1 0.0 -14.1364829411 -12.4651638607 0.0
498 1 1 0.0 -12.9054751619 -11.7546352267 0.0
499 2 2 0.0 -14.1364829411 -12.4651638607 4.0
500 2 2 0.0 -12.9054751619 -11.7546352267 4.0
501 1 1 0.0 -12.9056541117 -10.3330454985 0.0
502 1 1 0.0 -11.6746463326 -9.6225168645 0.0
503 2 2 0.0 -12.9056541117 -10.3330454985 4.0
504 2 2 0.0 -11.6746463326 -9.6225168645 4.0
505 1 1 0.0 -11.6748252824 -8.2009271363 0.0
506 1 1 0.0 -10.4438175033 -7.4903985023 0.0
507 2 2 0.0 -11.6748252824 -8.2009271363 4.0
508 2 2 0.0 -10.4438175033 -7.4903985023 4.0
509 1 1 0.0 -10.4439964531 -6.0688087741 0.0
510 1 1 0.0 -9.2129886739 -5.3582801401 0.0
511 2 2 0.0 -10.4439964531 -6.0688087741 4.0
512 2 2 0.0 -9.2129886739 -5.3582801401 4.0
513 1 1 0.0 -9.2131676237 -3.9366904119 0.0
514 1 1 0.0 -7.9821598446 -3.2261617779 0.0
515 2 2 0.0 -9.2131676237 -3.9366904119 4.0
516 2 2 0.0 -7.9821598446 -3.2261617779 4.0
517 1 1 0.0 -7.9823387944 -1.8045720497 0.0
518 1 1 0.0 -6.7513310153 -1.0940434157 0.0
519 2 2 0.0 -7.9823387944 -1.8045720497 4.0
520 2 2 0.0 -6.7513310153 -1.0940434157 4.0
521 1 1 0.0 -6.7515099651 0.3275463126 0.0
522 1 1 0.0 -5.5205021859 1.0380749465 0.0
523 2 2 0.0 -6.7515099651 0.3275463126 4.0
524 2 2 0.0 -5.5205021859 1.0380749465 4.0
525 1 1 0.0 -5.5206811357 2.4596646748 0.0
526 1 1 0.0 -4.2896733566 3.1701933088 0.0
527 2 2 0.0 -5.5206811357 2.4596646748 4.0
528 2 2 0.0 -4.2896733566 3.1701933088 4.0
529 1 1 0.0 -4.2898523064 4.591783037 0.0
530 1 1 0.0 -3.0588445272 5.302311671 0.0
531 2 2 0.0 -4.2898523064 4.591783037 4.0
532 2 2 0.0 -3.0588445272 5.302311671 4.0
533 1 1 0.0 -3.0590234771 6.7239013992 0.0
534 1 1 0.0 -1.8280156979 7.4344300332 0.0
535 2 2 0.0 -3.0590234771 6.7239013992 4.0
536 2 2 0.0 -1.8280156979 7.4344300332 4.0
537 1 1 0.0 -1.8281946477 8.8560197614 0.0
538 1 1 0.0 -0.5971868686 9.5665483954 0.0
539 2 2 0.0 -1.8281946477 8.8560197614 4.0
540 2 2 0.0 -0.5971868686 9.5665483954 4.0
541 1 1 0.0 -0.5973658184 10.9881381236 0.0
542 1 1 0.0 0.6336419608 11.6986667576 0.0
543 2 2 0.0 -0.5973658184 10.9881381236 4.0
544 2 2 0.0 0.6336419608 11.6986667576 4.0
545 1 1 0.0 0.6334630109 13.1202564858 0.0
546 1 1 0.0 1.8644707901 13.8307851198 0.0
547 2 2 0.0 0.6334630109 13.1202564858 4.0
548 2 2 0.0 1.8644707901 13.8307851198 4.0
549 1 1 0.0 1.8642918403 15.252374848 0.0
550 1 1 0.0 3.0952996194 15.962903482 0.0
551 2 2 0.0 1.8642918403 15.252374848 4.0
552 2 2 0.0 3.0952996194 15.962903482 4.0
553 1 1 0.0 3.0951206696 17.3844932103 0.0
554 1 1 0.0 4.3261284488 18.0950218442 0.0
555 2 2 0.0 3.0951206696 17.3844932103 4.0
556 2 2 0.0 4.3261284488 18.0950218442 4.0
557 1 1 0.0 4.3259494989 19.5166115725 0.0
558 1 1 0.0 5.5569572781 20.2271402065 0.0
559 2 2 0.0 4.3259494989 19.5166115725 4.0
560 2 2 0.0 5.5569572781 20.2271402065 4.0
561 1 1 0.0 8.0184583122 21.6487299347 0.0
562 1 1 0.0 9.2494660914 22.3592585687 0.0
563 2 2 0.0 8.0184583122 21.6487299347 4.0
564 2 2 0.0 9.2494660914 22.3592585687 4.0
565 1 1 0.0 -15.3672894451 -18.8615189474 0.0
566 1 1 0.0 -14.136281666 -18.1509903134 0.0
567 2 2 0.0 -15.3672894451 -18.8615189474 4.0
568 2 2 0.0 -14.136281666 -18.1509903134 4.0
569 1 1 0.0 -14.1364606158 -16.7294005852 0.0
570 1 1 0.0 -12.9054528366 -16.0188719512 0.0
571 2 2 0.0 -14.1364606158 -16.7294005852 4.0
572 2 2 0.0 -12.9054528366 -16.0188719512 4.0
573 1 1 0.0 -12.9056317864 -14.5972822229 0.0
574 1 1 0.0 -11.6746240073 -13.886753589 0.0
575 2 2 0.0 -12.9056317864 -14.5972822229 4.0
576 2 2 0.0 -11.6746240073 -13.886753589 4.0
577 1 1 0.0 -11.6748029571 -12.4651638607 0.0
578 1 1 0.0 -10.443795178 -11.7546352267 0.0
579 2 2 0.0 -11.6748029571 -12.4651638607 4.0
580 2 2 0.0 -10.443795178 -11.7546352267 4.0
581 1 1 0.0 -10.4439741278 -10.3330454985 0.0
582 1 1 0.0 -9.2129663486 -9.6225168645 0.0
583 2 2 0.0 -10.4439741278 -10.3330454985 4.0
584 2 2 0.0 -9.2129663486 -9.6225168645 4.0
585 1 1 0.0 -9.2131452984 -8.2009271363 0.0
586 1 1 0.0 -7.9821375193 -7.4903985023 0.0
587 2 2 0.0 -9.2131452984 -8.2009271363 4.0
588 2 2 0.0 -7.9821375193 -7.4903985023 4.0
589 1 1 0.0 -7.9823164691 -6.0688087741 0.0
590 1 1 0.0 -6.75130869 -5.3582801401 0.0
591 2 2 0.0 -7.9823164691 -6.0688087741 4.0
592 2 2 0.0 -6.75130869 -5.3582801401 4.0
593 1 1 0.0 -6.7514876398 -3.9366904119 0.0
594 1 1 0.0 -5.5204798606 -3.2261617779 0.0
595 2 2 0.0 -6.7514876398 -3.9366904119 4.0
596 2 2 0.0 -5.5204798606 -3.2261617779 4.0
597 1 1 0.0 -5.5206588104 -1.8045720497 0.0
598 1 1 0.0 -4.2896510313 -1.0940434157 0.0
599 2 2 0.0 -5.5206588104 -1.8045720497 4.0
600 2 2 0.0 -4.2896510313 -1.0940434157 4.0
601 1 1 0.0 -4.2898299811 0.3275463126 0.0
602 1 1 0.0 -3.058822202 1.0380749465 0.0
603 2 2 0.0 -4.2898299811 0.3275463126 4.0
604 2 2 0.0 -3.058822202 1.0380749465 4.0
605 1 1 0.0 -3.0590011518 2.4596646748 0.0
606 1 1 0.0 -1.8279933726 3.1701933088 0.0
607 2 2 0.0 -3.0590011518 2.4596646748 4.0
608 2 2 0.0 -1.8279933726 3.1701933088 4.0
609 1 1 0.0 -1.8281723224 4.591783037 0.0
610 1 1 0.0 -0.5971645433 5.302311671 0.0
611 2 2 0.0 -1.8281723224 4.591783037 4.0
612 2 2 0.0 -0.5971645433 5.302311671 4.0
613 1 1 0.0 -0.5973434931 6.7239013992 0.0
614 1 1 0.0 0.633664286 7.4344300332 0.0
615 2 2 0.0 -0.5973434931 6.7239013992 4.0
616 2 2 0.0 0.633664286 7.4344300332 4.0
617 1 1 0.0 0.6334853362 8.8560197614 0.0
618 1 1 0.0 1.8644931154 9.5665483954 0.0
619 2 2 0.0 0.6334853362 8.8560197614 4.0
620 2 2 0.0 1.8644931154 9.5665483954 4.0
621 1 1 0.0 1.8643141656 10.9881381236 0.0
622 1 1 0.0 3.0953219447 11.6986667576 0.0
623 2 2 0.0 1.8643141656 10.9881381236 4.0
624 2 2 0.0 3.0953219447 11.6986667576 4.0
625 1 1 0.0 3.0951429949 13.1202564858 0.0
626 1 1 0.0 4.3261507741 13.8307851198 0.0
627 2 2 0.0 3.0951429949 13.1202564858 4.0
628 2 2 0.0 4.3261507741 13.8307851198 4.0
629 1 1 0.0 4.3259718242 15.252374848 0.0
630 1 1 0.0 5.5569796034 15.962903482 0.0
631 2 2 0.0 4.3259718242 15.252374848 4.0
632 2 2 0.0 5.5569796034 15.962903482 4.0
633 1 1 0.0 5.5568006536 17.3844932103 0.0
634 1 1 0.0 6.7878084327 18.0950218442 0.0
635 2 2 0.0 5.5568006536 17.3844932103 4.0
636 2 2 0.0 6.7878084327 18.0950218442 4.0
637 1 1 0.0 6.7876294829 19.5166115725 0.0
638 1 1 0.0 8.0186372621 20.2271402065 0.0
639 2 2 0.0 6.7876294829 19.5166115725 4.0
640 2 2 0.0 8.0186372621 20.2271402065 4.0
641 1 1 0.0 10.4801382962 21.6487299347 0.0
642 1 1 0.0 11.7111460753 22.3592585687 0.0
643 2 2 0.0 10.4801382962 21.6487299347 4.0
644 2 2 0.0 11.7111460753 22.3592585687 4.0
645 1 1 0.0 -12.9056094611 -18.8615189474 0.0
646 1 1 0.0 -11.674601682 -18.1509903134 0.0
647 2 2 0.0 -12.9056094611 -18.8615189474 4.0
648 2 2 0.0 -11.674601682 -18.1509903134 4.0
649 1 1 0.0 -11.6747806318 -16.7294005852 0.0
650 1 1 0.0 -10.4437728527 -16.0188719512 0.0
651 2 2 0.0 -11.6747806318 -16.7294005852 4.0
652 2 2 0.0 -10.4437728527 -16.0188719512 4.0
653 1 1 0.0 -10.4439518025 -14.5972822229 0.0
654 1 1 0.0 -9.2129440233 -13.886753589 0.0
655 2 2 0.0 -10.4439518025 -14.5972822229 4.0
656 2 2 0.0 -9.2129440233 -13.886753589 4.0
657 1 1 0.0 -9.2131229731 -12.4651638607 0.0
658 1 1 0.0 -7.982115194 -11.7546352267 0.0
659 2 2 0.0 -9.2131229731 -12.4651638607 4.0
660 2 2 0.0 -7.982115194 -11.7546352267 4.0
661 1 1 0.0 -7.9822941438 -10.3330454985 0.0
662 1 1 0.0 -6.7512863647 -9.6225168645 0.0
663 2 2 0.0 -7.9822941438 -10.3330454985 4.0
664 2 2 0.0 -6.7512863647 -9.6225168645 4.0
665 1 1 0.0 -6.7514653145 -8.2009271363 0.0
666 1 1 0.0 -5.5204575353 -7.4903985023 0.0
667 2 2 0.0 -6.7514653145 -8.2009271363 4.0
668 2 2 0.0 -5.5204575353 -7.4903985023 4.0
669 1 1 0.0 -5.5206364851 -6.0688087741 0.0
670 1 1 0.0 -4.289628706 -5.3582801401 0.0
671 2 2 0.0 -5.5206364851 -6.0688087741 4.0
672 2 2 0.0 -4.289628706 -5.3582801401 4.0
673 1 1 0.0 -4.2898076558 -3.9366904119 0.0
674 1 1 0.0 -3.0587998767 -3.2261617779 0.0
675 2 2 0.0 -4.2898076558 -3.9366904119 4.0
676 2 2 0.0 -3.0587998767 -3.2261617779 4.0